Sconfig 0.00000 tap: on snoop: rts? on errs? on
Sconfig 0.00000 salvage: on !bd replies? on
Sconfig 0.00000 grat error: on grat reply: on
Sconfig 0.00000 $reply for props: on ring 0 search: on
Sconfig 0.00000 using MOBICACHE
s 0.000000000 _0_ AGT  --- 0 cbr 1000 [0 0 0 0] ------- [0:0 18:0 32 0] [0] 0 0
r 0.000000000 _0_ RTR  --- 0 cbr 1000 [0 0 0 0] ------- [0:0 18:0 32 0] [0] 0 0
v 0 eval {set sim_annotation {MOBILE NODE MOVEMENTS}}
s 0.000672435 _0_ RTR  --- 1 DSR 32 [0 0 0 0] ------- [0:255 18:255 32 0] 1 [1 1] [0 1 0 0->0] [0 0 0 0->0]
s 0.000887435 _0_ MAC  --- 1 DSR 90 [0 ffffffff 0 800] ------- [0:255 18:255 32 0] 1 [1 1] [0 1 0 0->0] [0 0 0 0->0]
r 0.001607956 _12_ MAC  --- 1 DSR 32 [0 ffffffff 0 800] ------- [0:255 18:255 32 0] 1 [1 1] [0 1 0 0->0] [0 0 0 0->0]
r 0.001607962 _15_ MAC  --- 1 DSR 32 [0 ffffffff 0 800] ------- [0:255 18:255 32 0] 1 [1 1] [0 1 0 0->0] [0 0 0 0->0]
r 0.001607968 _18_ MAC  --- 1 DSR 32 [0 ffffffff 0 800] ------- [0:255 18:255 32 0] 1 [1 1] [0 1 0 0->0] [0 0 0 0->0]
r 0.001607990 _14_ MAC  --- 1 DSR 32 [0 ffffffff 0 800] ------- [0:255 18:255 32 0] 1 [1 1] [0 1 0 0->0] [0 0 0 0->0]
r 0.001608152 _17_ MAC  --- 1 DSR 32 [0 ffffffff 0 800] ------- [0:255 18:255 32 0] 1 [1 1] [0 1 0 0->0] [0 0 0 0->0]
r 0.001608173 _9_ MAC  --- 1 DSR 32 [0 ffffffff 0 800] ------- [0:255 18:255 32 0] 1 [1 1] [0 1 0 0->0] [0 0 0 0->0]
r 0.001608198 _19_ MAC  --- 1 DSR 32 [0 ffffffff 0 800] ------- [0:255 18:255 32 0] 1 [1 1] [0 1 0 0->0] [0 0 0 0->0]
r 0.001608221 _8_ MAC  --- 1 DSR 32 [0 ffffffff 0 800] ------- [0:255 18:255 32 0] 1 [1 1] [0 1 0 0->0] [0 0 0 0->0]
r 0.001608232 _7_ MAC  --- 1 DSR 32 [0 ffffffff 0 800] ------- [0:255 18:255 32 0] 1 [1 1] [0 1 0 0->0] [0 0 0 0->0]
r 0.001608300 _22_ MAC  --- 1 DSR 32 [0 ffffffff 0 800] ------- [0:255 18:255 32 0] 1 [1 1] [0 1 0 0->0] [0 0 0 0->0]
r 0.001608362 _16_ MAC  --- 1 DSR 32 [0 ffffffff 0 800] ------- [0:255 18:255 32 0] 1 [1 1] [0 1 0 0->0] [0 0 0 0->0]
r 0.001608482 _4_ MAC  --- 1 DSR 32 [0 ffffffff 0 800] ------- [0:255 18:255 32 0] 1 [1 1] [0 1 0 0->0] [0 0 0 0->0]
r 0.001608547 _10_ MAC  --- 1 DSR 32 [0 ffffffff 0 800] ------- [0:255 18:255 32 0] 1 [1 1] [0 1 0 0->0] [0 0 0 0->0]
r 0.001608563 _11_ MAC  --- 1 DSR 32 [0 ffffffff 0 800] ------- [0:255 18:255 32 0] 1 [1 1] [0 1 0 0->0] [0 0 0 0->0]
r 0.001608617 _13_ MAC  --- 1 DSR 32 [0 ffffffff 0 800] ------- [0:255 18:255 32 0] 1 [1 1] [0 1 0 0->0] [0 0 0 0->0]
r 0.001608642 _6_ MAC  --- 1 DSR 32 [0 ffffffff 0 800] ------- [0:255 18:255 32 0] 1 [1 1] [0 1 0 0->0] [0 0 0 0->0]
r 0.001608713 _5_ MAC  --- 1 DSR 32 [0 ffffffff 0 800] ------- [0:255 18:255 32 0] 1 [1 1] [0 1 0 0->0] [0 0 0 0->0]
r 0.001608765 _3_ MAC  --- 1 DSR 32 [0 ffffffff 0 800] ------- [0:255 18:255 32 0] 1 [1 1] [0 1 0 0->0] [0 0 0 0->0]
r 0.001608870 _20_ MAC  --- 1 DSR 32 [0 ffffffff 0 800] ------- [0:255 18:255 32 0] 1 [1 1] [0 1 0 0->0] [0 0 0 0->0]
r 0.001608926 _21_ MAC  --- 1 DSR 32 [0 ffffffff 0 800] ------- [0:255 18:255 32 0] 1 [1 1] [0 1 0 0->0] [0 0 0 0->0]
r 0.001609026 _2_ MAC  --- 1 DSR 32 [0 ffffffff 0 800] ------- [0:255 18:255 32 0] 1 [1 1] [0 1 0 0->0] [0 0 0 0->0]
r 0.001610545 _1_ MAC  --- 1 DSR 32 [0 ffffffff 0 800] ------- [0:255 18:255 32 0] 1 [1 1] [0 1 0 0->0] [0 0 0 0->0]
r 0.001632956 _12_ RTR  --- 1 DSR 32 [0 ffffffff 0 800] ------- [0:255 18:255 32 0] 1 [1 1] [0 1 0 0->0] [0 0 0 0->0]
r 0.001632962 _15_ RTR  --- 1 DSR 32 [0 ffffffff 0 800] ------- [0:255 18:255 32 0] 1 [1 1] [0 1 0 0->0] [0 0 0 0->0]
r 0.001632968 _18_ RTR  --- 1 DSR 32 [0 ffffffff 0 800] ------- [0:255 18:255 32 0] 1 [1 1] [0 1 0 0->0] [0 0 0 0->0]
r 0.001632990 _14_ RTR  --- 1 DSR 32 [0 ffffffff 0 800] ------- [0:255 18:255 32 0] 1 [1 1] [0 1 0 0->0] [0 0 0 0->0]
r 0.001633152 _17_ RTR  --- 1 DSR 32 [0 ffffffff 0 800] ------- [0:255 18:255 32 0] 1 [1 1] [0 1 0 0->0] [0 0 0 0->0]
r 0.001633173 _9_ RTR  --- 1 DSR 32 [0 ffffffff 0 800] ------- [0:255 18:255 32 0] 1 [1 1] [0 1 0 0->0] [0 0 0 0->0]
r 0.001633198 _19_ RTR  --- 1 DSR 32 [0 ffffffff 0 800] ------- [0:255 18:255 32 0] 1 [1 1] [0 1 0 0->0] [0 0 0 0->0]
r 0.001633221 _8_ RTR  --- 1 DSR 32 [0 ffffffff 0 800] ------- [0:255 18:255 32 0] 1 [1 1] [0 1 0 0->0] [0 0 0 0->0]
r 0.001633232 _7_ RTR  --- 1 DSR 32 [0 ffffffff 0 800] ------- [0:255 18:255 32 0] 1 [1 1] [0 1 0 0->0] [0 0 0 0->0]
r 0.001633300 _22_ RTR  --- 1 DSR 32 [0 ffffffff 0 800] ------- [0:255 18:255 32 0] 1 [1 1] [0 1 0 0->0] [0 0 0 0->0]
r 0.001633362 _16_ RTR  --- 1 DSR 32 [0 ffffffff 0 800] ------- [0:255 18:255 32 0] 1 [1 1] [0 1 0 0->0] [0 0 0 0->0]
r 0.001633482 _4_ RTR  --- 1 DSR 32 [0 ffffffff 0 800] ------- [0:255 18:255 32 0] 1 [1 1] [0 1 0 0->0] [0 0 0 0->0]
r 0.001633547 _10_ RTR  --- 1 DSR 32 [0 ffffffff 0 800] ------- [0:255 18:255 32 0] 1 [1 1] [0 1 0 0->0] [0 0 0 0->0]
r 0.001633563 _11_ RTR  --- 1 DSR 32 [0 ffffffff 0 800] ------- [0:255 18:255 32 0] 1 [1 1] [0 1 0 0->0] [0 0 0 0->0]
r 0.001633617 _13_ RTR  --- 1 DSR 32 [0 ffffffff 0 800] ------- [0:255 18:255 32 0] 1 [1 1] [0 1 0 0->0] [0 0 0 0->0]
r 0.001633642 _6_ RTR  --- 1 DSR 32 [0 ffffffff 0 800] ------- [0:255 18:255 32 0] 1 [1 1] [0 1 0 0->0] [0 0 0 0->0]
r 0.001633713 _5_ RTR  --- 1 DSR 32 [0 ffffffff 0 800] ------- [0:255 18:255 32 0] 1 [1 1] [0 1 0 0->0] [0 0 0 0->0]
r 0.001633765 _3_ RTR  --- 1 DSR 32 [0 ffffffff 0 800] ------- [0:255 18:255 32 0] 1 [1 1] [0 1 0 0->0] [0 0 0 0->0]
r 0.001633870 _20_ RTR  --- 1 DSR 32 [0 ffffffff 0 800] ------- [0:255 18:255 32 0] 1 [1 1] [0 1 0 0->0] [0 0 0 0->0]
r 0.001633926 _21_ RTR  --- 1 DSR 32 [0 ffffffff 0 800] ------- [0:255 18:255 32 0] 1 [1 1] [0 1 0 0->0] [0 0 0 0->0]
r 0.001634026 _2_ RTR  --- 1 DSR 32 [0 ffffffff 0 800] ------- [0:255 18:255 32 0] 1 [1 1] [0 1 0 0->0] [0 0 0 0->0]
r 0.001635545 _1_ RTR  --- 1 DSR 32 [0 ffffffff 0 800] ------- [0:255 18:255 32 0] 1 [1 1] [0 1 0 0->0] [0 0 0 0->0]
s 0.009701913 _18_ RTR  --- 2 DSR 44 [0 0 0 0] ------- [18:255 0:255 254 0] 2 [0 1] [1 1 2 0->18] [0 0 0 0->0]
s 0.009976913 _18_ MAC  --- 0 ARP 86 [0 ffffffff 12 806] ------- [REQUEST 18/18 0/0]
r 0.010665208 _17_ MAC  --- 0 ARP 28 [0 ffffffff 12 806] ------- [REQUEST 18/18 0/0]
r 0.010665446 _0_ MAC  --- 0 ARP 28 [0 ffffffff 12 806] ------- [REQUEST 18/18 0/0]
r 0.010665478 _15_ MAC  --- 0 ARP 28 [0 ffffffff 12 806] ------- [REQUEST 18/18 0/0]
r 0.010665644 _16_ MAC  --- 0 ARP 28 [0 ffffffff 12 806] ------- [REQUEST 18/18 0/0]
r 0.010665669 _22_ MAC  --- 0 ARP 28 [0 ffffffff 12 806] ------- [REQUEST 18/18 0/0]
r 0.010665851 _19_ MAC  --- 0 ARP 28 [0 ffffffff 12 806] ------- [REQUEST 18/18 0/0]
r 0.010665871 _12_ MAC  --- 0 ARP 28 [0 ffffffff 12 806] ------- [REQUEST 18/18 0/0]
r 0.010665887 _14_ MAC  --- 0 ARP 28 [0 ffffffff 12 806] ------- [REQUEST 18/18 0/0]
r 0.010665902 _9_ MAC  --- 0 ARP 28 [0 ffffffff 12 806] ------- [REQUEST 18/18 0/0]
r 0.010666111 _10_ MAC  --- 0 ARP 28 [0 ffffffff 12 806] ------- [REQUEST 18/18 0/0]
r 0.010666226 _7_ MAC  --- 0 ARP 28 [0 ffffffff 12 806] ------- [REQUEST 18/18 0/0]
r 0.010666230 _8_ MAC  --- 0 ARP 28 [0 ffffffff 12 806] ------- [REQUEST 18/18 0/0]
r 0.010666364 _4_ MAC  --- 0 ARP 28 [0 ffffffff 12 806] ------- [REQUEST 18/18 0/0]
r 0.010666384 _21_ MAC  --- 0 ARP 28 [0 ffffffff 12 806] ------- [REQUEST 18/18 0/0]
r 0.010666457 _13_ MAC  --- 0 ARP 28 [0 ffffffff 12 806] ------- [REQUEST 18/18 0/0]
r 0.010666526 _11_ MAC  --- 0 ARP 28 [0 ffffffff 12 806] ------- [REQUEST 18/18 0/0]
r 0.010666536 _20_ MAC  --- 0 ARP 28 [0 ffffffff 12 806] ------- [REQUEST 18/18 0/0]
r 0.010666542 _3_ MAC  --- 0 ARP 28 [0 ffffffff 12 806] ------- [REQUEST 18/18 0/0]
r 0.010666653 _6_ MAC  --- 0 ARP 28 [0 ffffffff 12 806] ------- [REQUEST 18/18 0/0]
r 0.010666687 _5_ MAC  --- 0 ARP 28 [0 ffffffff 12 806] ------- [REQUEST 18/18 0/0]
r 0.010666920 _2_ MAC  --- 0 ARP 28 [0 ffffffff 12 806] ------- [REQUEST 18/18 0/0]
r 0.010667677 _1_ MAC  --- 0 ARP 28 [0 ffffffff 12 806] ------- [REQUEST 18/18 0/0]
s 0.010860446 _0_ MAC  --- 0 RTS 44 [52e 12 0 0] 
r 0.011212979 _18_ MAC  --- 0 RTS 44 [52e 12 0 0] 
s 0.011222979 _18_ MAC  --- 0 CTS 38 [3f4 0 0 0] 
r 0.011527512 _0_ MAC  --- 0 CTS 38 [3f4 0 0 0] 
s 0.011537512 _0_ MAC  --- 0 ARP 86 [13a 12 0 806] ------- [REPLY 0/0 18/18]
r 0.012226045 _18_ MAC  --- 0 ARP 28 [13a 12 0 806] ------- [REPLY 0/0 18/18]
s 0.012236045 _18_ MAC  --- 0 ACK 38 [0 0 0 0] 
r 0.012540578 _0_ MAC  --- 0 ACK 38 [0 0 0 0] 
s 0.012910045 _18_ MAC  --- 0 RTS 44 [5ae 0 12 0] 
r 0.013262578 _0_ MAC  --- 0 RTS 44 [5ae 0 12 0] 
s 0.013272578 _0_ MAC  --- 0 CTS 38 [474 12 0 0] 
r 0.013577111 _18_ MAC  --- 0 CTS 38 [474 12 0 0] 
s 0.013587111 _18_ MAC  --- 2 DSR 102 [13a 0 12 800] ------- [18:255 0:255 254 0] 2 [0 1] [1 1 2 0->18] [0 0 0 0->0]
r 0.014403644 _0_ MAC  --- 2 DSR 44 [13a 0 12 800] ------- [18:255 0:255 254 0] 2 [0 1] [1 1 2 0->18] [0 0 0 0->0]
s 0.014413644 _0_ MAC  --- 0 ACK 38 [0 12 0 0] 
r 0.014428644 _0_ RTR  --- 2 DSR 44 [13a 0 12 800] ------- [18:255 0:255 254 0] 2 [0 1] [1 1 2 0->18] [0 0 0 0->0]
SFESTs 0.014428644 _0_ 0 [0 -> 18] 1(1) to 18 [0 |18 ]
s 0.014428644 _0_ RTR  --- 0 cbr 1036 [0 0 0 0] ------- [0:0 18:0 32 18] [0] 0 0
r 0.014718178 _18_ MAC  --- 0 ACK 38 [0 12 0 0] 
s 0.014907644 _0_ MAC  --- 0 RTS 44 [24ae 12 0 0] 
r 0.015260178 _18_ MAC  --- 0 RTS 44 [24ae 12 0 0] 
s 0.015270178 _18_ MAC  --- 0 CTS 38 [2374 0 0 0] 
r 0.015574711 _0_ MAC  --- 0 CTS 38 [2374 0 0 0] 
s 0.015584711 _0_ MAC  --- 0 cbr 1094 [13a 12 0 800] ------- [0:0 18:0 32 18] [0] 0 0
r 0.024337244 _18_ MAC  --- 0 cbr 1036 [13a 12 0 800] ------- [0:0 18:0 32 18] [0] 1 0
s 0.024347244 _18_ MAC  --- 0 ACK 38 [0 0 0 0] 
r 0.024362244 _18_ RTR  --- 0 cbr 1036 [13a 12 0 800] ------- [0:0 18:0 32 18] [0] 1 0
r 0.024362244 _18_ AGT  --- 0 cbr 1000 [13a 12 0 800] ------- [0:0 18:0 32 18] [0] 1 0
r 0.024651777 _0_ MAC  --- 0 ACK 38 [0 0 0 0] 
s 0.070000000 _0_ AGT  --- 3 cbr 1000 [0 0 0 0] ------- [0:0 18:0 32 0] [1] 0 0
r 0.070000000 _0_ RTR  --- 3 cbr 1000 [0 0 0 0] ------- [0:0 18:0 32 0] [1] 0 0
SFESTs 0.070000000 _0_ 3 [0 -> 18] 1(1) to 18 [0 |18 ]
s 0.070000000 _0_ RTR  --- 3 cbr 1036 [0 0 0 0] ------- [0:0 18:0 32 18] [1] 0 0
s 0.070195000 _0_ MAC  --- 0 RTS 44 [24ae 12 0 0] 
r 0.070547533 _18_ MAC  --- 0 RTS 44 [24ae 12 0 0] 
s 0.070557533 _18_ MAC  --- 0 CTS 38 [2374 0 0 0] 
r 0.070862066 _0_ MAC  --- 0 CTS 38 [2374 0 0 0] 
s 0.070872066 _0_ MAC  --- 3 cbr 1094 [13a 12 0 800] ------- [0:0 18:0 32 18] [1] 0 0
r 0.079624599 _18_ MAC  --- 3 cbr 1036 [13a 12 0 800] ------- [0:0 18:0 32 18] [1] 1 0
s 0.079634599 _18_ MAC  --- 0 ACK 38 [0 0 0 0] 
r 0.079649599 _18_ RTR  --- 3 cbr 1036 [13a 12 0 800] ------- [0:0 18:0 32 18] [1] 1 0
r 0.079649599 _18_ AGT  --- 3 cbr 1000 [13a 12 0 800] ------- [0:0 18:0 32 18] [1] 1 0
r 0.079939132 _0_ MAC  --- 0 ACK 38 [0 0 0 0] 
s 0.100000000 _0_ AGT  --- 4 cbr 1000 [0 0 0 0] ------- [0:1 22:0 32 0] [0] 0 0
r 0.100000000 _0_ RTR  --- 4 cbr 1000 [0 0 0 0] ------- [0:1 22:0 32 0] [0] 0 0
s 0.108622200 _0_ RTR  --- 5 DSR 32 [0 0 0 0] ------- [0:255 22:255 32 0] 1 [1 2] [0 2 0 0->0] [0 0 0 0->0]
s 0.109197200 _0_ MAC  --- 5 DSR 90 [0 ffffffff 0 800] ------- [0:255 22:255 32 0] 1 [1 2] [0 2 0 0->0] [0 0 0 0->0]
r 0.109917720 _12_ MAC  --- 5 DSR 32 [0 ffffffff 0 800] ------- [0:255 22:255 32 0] 1 [1 2] [0 2 0 0->0] [0 0 0 0->0]
r 0.109917727 _15_ MAC  --- 5 DSR 32 [0 ffffffff 0 800] ------- [0:255 22:255 32 0] 1 [1 2] [0 2 0 0->0] [0 0 0 0->0]
r 0.109917733 _18_ MAC  --- 5 DSR 32 [0 ffffffff 0 800] ------- [0:255 22:255 32 0] 1 [1 2] [0 2 0 0->0] [0 0 0 0->0]
r 0.109917755 _14_ MAC  --- 5 DSR 32 [0 ffffffff 0 800] ------- [0:255 22:255 32 0] 1 [1 2] [0 2 0 0->0] [0 0 0 0->0]
r 0.109917917 _17_ MAC  --- 5 DSR 32 [0 ffffffff 0 800] ------- [0:255 22:255 32 0] 1 [1 2] [0 2 0 0->0] [0 0 0 0->0]
r 0.109917937 _9_ MAC  --- 5 DSR 32 [0 ffffffff 0 800] ------- [0:255 22:255 32 0] 1 [1 2] [0 2 0 0->0] [0 0 0 0->0]
r 0.109917962 _19_ MAC  --- 5 DSR 32 [0 ffffffff 0 800] ------- [0:255 22:255 32 0] 1 [1 2] [0 2 0 0->0] [0 0 0 0->0]
r 0.109917986 _8_ MAC  --- 5 DSR 32 [0 ffffffff 0 800] ------- [0:255 22:255 32 0] 1 [1 2] [0 2 0 0->0] [0 0 0 0->0]
r 0.109917996 _7_ MAC  --- 5 DSR 32 [0 ffffffff 0 800] ------- [0:255 22:255 32 0] 1 [1 2] [0 2 0 0->0] [0 0 0 0->0]
r 0.109918064 _22_ MAC  --- 5 DSR 32 [0 ffffffff 0 800] ------- [0:255 22:255 32 0] 1 [1 2] [0 2 0 0->0] [0 0 0 0->0]
r 0.109918126 _16_ MAC  --- 5 DSR 32 [0 ffffffff 0 800] ------- [0:255 22:255 32 0] 1 [1 2] [0 2 0 0->0] [0 0 0 0->0]
r 0.109918246 _4_ MAC  --- 5 DSR 32 [0 ffffffff 0 800] ------- [0:255 22:255 32 0] 1 [1 2] [0 2 0 0->0] [0 0 0 0->0]
r 0.109918312 _10_ MAC  --- 5 DSR 32 [0 ffffffff 0 800] ------- [0:255 22:255 32 0] 1 [1 2] [0 2 0 0->0] [0 0 0 0->0]
r 0.109918328 _11_ MAC  --- 5 DSR 32 [0 ffffffff 0 800] ------- [0:255 22:255 32 0] 1 [1 2] [0 2 0 0->0] [0 0 0 0->0]
r 0.109918381 _13_ MAC  --- 5 DSR 32 [0 ffffffff 0 800] ------- [0:255 22:255 32 0] 1 [1 2] [0 2 0 0->0] [0 0 0 0->0]
r 0.109918407 _6_ MAC  --- 5 DSR 32 [0 ffffffff 0 800] ------- [0:255 22:255 32 0] 1 [1 2] [0 2 0 0->0] [0 0 0 0->0]
r 0.109918477 _5_ MAC  --- 5 DSR 32 [0 ffffffff 0 800] ------- [0:255 22:255 32 0] 1 [1 2] [0 2 0 0->0] [0 0 0 0->0]
r 0.109918529 _3_ MAC  --- 5 DSR 32 [0 ffffffff 0 800] ------- [0:255 22:255 32 0] 1 [1 2] [0 2 0 0->0] [0 0 0 0->0]
r 0.109918634 _20_ MAC  --- 5 DSR 32 [0 ffffffff 0 800] ------- [0:255 22:255 32 0] 1 [1 2] [0 2 0 0->0] [0 0 0 0->0]
r 0.109918691 _21_ MAC  --- 5 DSR 32 [0 ffffffff 0 800] ------- [0:255 22:255 32 0] 1 [1 2] [0 2 0 0->0] [0 0 0 0->0]
r 0.109918790 _2_ MAC  --- 5 DSR 32 [0 ffffffff 0 800] ------- [0:255 22:255 32 0] 1 [1 2] [0 2 0 0->0] [0 0 0 0->0]
r 0.109920310 _1_ MAC  --- 5 DSR 32 [0 ffffffff 0 800] ------- [0:255 22:255 32 0] 1 [1 2] [0 2 0 0->0] [0 0 0 0->0]
r 0.109942720 _12_ RTR  --- 5 DSR 32 [0 ffffffff 0 800] ------- [0:255 22:255 32 0] 1 [1 2] [0 2 0 0->0] [0 0 0 0->0]
r 0.109942727 _15_ RTR  --- 5 DSR 32 [0 ffffffff 0 800] ------- [0:255 22:255 32 0] 1 [1 2] [0 2 0 0->0] [0 0 0 0->0]
r 0.109942733 _18_ RTR  --- 5 DSR 32 [0 ffffffff 0 800] ------- [0:255 22:255 32 0] 1 [1 2] [0 2 0 0->0] [0 0 0 0->0]
r 0.109942755 _14_ RTR  --- 5 DSR 32 [0 ffffffff 0 800] ------- [0:255 22:255 32 0] 1 [1 2] [0 2 0 0->0] [0 0 0 0->0]
r 0.109942917 _17_ RTR  --- 5 DSR 32 [0 ffffffff 0 800] ------- [0:255 22:255 32 0] 1 [1 2] [0 2 0 0->0] [0 0 0 0->0]
r 0.109942937 _9_ RTR  --- 5 DSR 32 [0 ffffffff 0 800] ------- [0:255 22:255 32 0] 1 [1 2] [0 2 0 0->0] [0 0 0 0->0]
r 0.109942962 _19_ RTR  --- 5 DSR 32 [0 ffffffff 0 800] ------- [0:255 22:255 32 0] 1 [1 2] [0 2 0 0->0] [0 0 0 0->0]
r 0.109942986 _8_ RTR  --- 5 DSR 32 [0 ffffffff 0 800] ------- [0:255 22:255 32 0] 1 [1 2] [0 2 0 0->0] [0 0 0 0->0]
r 0.109942996 _7_ RTR  --- 5 DSR 32 [0 ffffffff 0 800] ------- [0:255 22:255 32 0] 1 [1 2] [0 2 0 0->0] [0 0 0 0->0]
r 0.109943064 _22_ RTR  --- 5 DSR 32 [0 ffffffff 0 800] ------- [0:255 22:255 32 0] 1 [1 2] [0 2 0 0->0] [0 0 0 0->0]
r 0.109943126 _16_ RTR  --- 5 DSR 32 [0 ffffffff 0 800] ------- [0:255 22:255 32 0] 1 [1 2] [0 2 0 0->0] [0 0 0 0->0]
r 0.109943246 _4_ RTR  --- 5 DSR 32 [0 ffffffff 0 800] ------- [0:255 22:255 32 0] 1 [1 2] [0 2 0 0->0] [0 0 0 0->0]
r 0.109943312 _10_ RTR  --- 5 DSR 32 [0 ffffffff 0 800] ------- [0:255 22:255 32 0] 1 [1 2] [0 2 0 0->0] [0 0 0 0->0]
r 0.109943328 _11_ RTR  --- 5 DSR 32 [0 ffffffff 0 800] ------- [0:255 22:255 32 0] 1 [1 2] [0 2 0 0->0] [0 0 0 0->0]
r 0.109943381 _13_ RTR  --- 5 DSR 32 [0 ffffffff 0 800] ------- [0:255 22:255 32 0] 1 [1 2] [0 2 0 0->0] [0 0 0 0->0]
r 0.109943407 _6_ RTR  --- 5 DSR 32 [0 ffffffff 0 800] ------- [0:255 22:255 32 0] 1 [1 2] [0 2 0 0->0] [0 0 0 0->0]
r 0.109943477 _5_ RTR  --- 5 DSR 32 [0 ffffffff 0 800] ------- [0:255 22:255 32 0] 1 [1 2] [0 2 0 0->0] [0 0 0 0->0]
r 0.109943529 _3_ RTR  --- 5 DSR 32 [0 ffffffff 0 800] ------- [0:255 22:255 32 0] 1 [1 2] [0 2 0 0->0] [0 0 0 0->0]
r 0.109943634 _20_ RTR  --- 5 DSR 32 [0 ffffffff 0 800] ------- [0:255 22:255 32 0] 1 [1 2] [0 2 0 0->0] [0 0 0 0->0]
r 0.109943691 _21_ RTR  --- 5 DSR 32 [0 ffffffff 0 800] ------- [0:255 22:255 32 0] 1 [1 2] [0 2 0 0->0] [0 0 0 0->0]
r 0.109943790 _2_ RTR  --- 5 DSR 32 [0 ffffffff 0 800] ------- [0:255 22:255 32 0] 1 [1 2] [0 2 0 0->0] [0 0 0 0->0]
r 0.109945310 _1_ RTR  --- 5 DSR 32 [0 ffffffff 0 800] ------- [0:255 22:255 32 0] 1 [1 2] [0 2 0 0->0] [0 0 0 0->0]
s 0.115457971 _22_ RTR  --- 6 DSR 44 [0 0 0 0] ------- [22:255 0:255 254 0] 2 [0 2] [1 2 2 0->22] [0 0 0 0->0]
s 0.115712971 _22_ MAC  --- 0 ARP 86 [0 ffffffff 16 806] ------- [REQUEST 22/22 0/0]
r 0.116401417 _19_ MAC  --- 0 ARP 28 [0 ffffffff 16 806] ------- [REQUEST 22/22 0/0]
r 0.116401686 _21_ MAC  --- 0 ARP 28 [0 ffffffff 16 806] ------- [REQUEST 22/22 0/0]
r 0.116401727 _18_ MAC  --- 0 ARP 28 [0 ffffffff 16 806] ------- [REQUEST 22/22 0/0]
r 0.116401821 _12_ MAC  --- 0 ARP 28 [0 ffffffff 16 806] ------- [REQUEST 22/22 0/0]
r 0.116401836 _0_ MAC  --- 0 ARP 28 [0 ffffffff 16 806] ------- [REQUEST 22/22 0/0]
r 0.116401937 _20_ MAC  --- 0 ARP 28 [0 ffffffff 16 806] ------- [REQUEST 22/22 0/0]
r 0.116402009 _17_ MAC  --- 0 ARP 28 [0 ffffffff 16 806] ------- [REQUEST 22/22 0/0]
r 0.116402086 _13_ MAC  --- 0 ARP 28 [0 ffffffff 16 806] ------- [REQUEST 22/22 0/0]
r 0.116402212 _15_ MAC  --- 0 ARP 28 [0 ffffffff 16 806] ------- [REQUEST 22/22 0/0]
r 0.116402344 _8_ MAC  --- 0 ARP 28 [0 ffffffff 16 806] ------- [REQUEST 22/22 0/0]
r 0.116402388 _14_ MAC  --- 0 ARP 28 [0 ffffffff 16 806] ------- [REQUEST 22/22 0/0]
r 0.116402396 _11_ MAC  --- 0 ARP 28 [0 ffffffff 16 806] ------- [REQUEST 22/22 0/0]
r 0.116402457 _16_ MAC  --- 0 ARP 28 [0 ffffffff 16 806] ------- [REQUEST 22/22 0/0]
r 0.116402526 _7_ MAC  --- 0 ARP 28 [0 ffffffff 16 806] ------- [REQUEST 22/22 0/0]
r 0.116402552 _9_ MAC  --- 0 ARP 28 [0 ffffffff 16 806] ------- [REQUEST 22/22 0/0]
r 0.116402810 _6_ MAC  --- 0 ARP 28 [0 ffffffff 16 806] ------- [REQUEST 22/22 0/0]
r 0.116402862 _10_ MAC  --- 0 ARP 28 [0 ffffffff 16 806] ------- [REQUEST 22/22 0/0]
r 0.116402874 _4_ MAC  --- 0 ARP 28 [0 ffffffff 16 806] ------- [REQUEST 22/22 0/0]
r 0.116403022 _5_ MAC  --- 0 ARP 28 [0 ffffffff 16 806] ------- [REQUEST 22/22 0/0]
r 0.116403164 _3_ MAC  --- 0 ARP 28 [0 ffffffff 16 806] ------- [REQUEST 22/22 0/0]
r 0.116403254 _1_ MAC  --- 0 ARP 28 [0 ffffffff 16 806] ------- [REQUEST 22/22 0/0]
r 0.116403406 _2_ MAC  --- 0 ARP 28 [0 ffffffff 16 806] ------- [REQUEST 22/22 0/0]
s 0.117016836 _0_ MAC  --- 0 RTS 44 [52e 16 0 0] 
r 0.117369700 _22_ MAC  --- 0 RTS 44 [52e 16 0 0] 
s 0.117379700 _22_ MAC  --- 0 CTS 38 [3f4 0 0 0] 
r 0.117684565 _0_ MAC  --- 0 CTS 38 [3f4 0 0 0] 
s 0.117694565 _0_ MAC  --- 0 ARP 86 [13a 16 0 806] ------- [REPLY 0/0 22/22]
r 0.118383430 _22_ MAC  --- 0 ARP 28 [13a 16 0 806] ------- [REPLY 0/0 22/22]
s 0.118393430 _22_ MAC  --- 0 ACK 38 [0 0 0 0] 
r 0.118698294 _0_ MAC  --- 0 ACK 38 [0 0 0 0] 
s 0.118927430 _22_ MAC  --- 0 RTS 44 [5ae 0 16 0] 
r 0.119280294 _0_ MAC  --- 0 RTS 44 [5ae 0 16 0] 
s 0.119290294 _0_ MAC  --- 0 CTS 38 [474 16 0 0] 
r 0.119595159 _22_ MAC  --- 0 CTS 38 [474 16 0 0] 
s 0.119605159 _22_ MAC  --- 6 DSR 102 [13a 0 16 800] ------- [22:255 0:255 254 0] 2 [0 2] [1 2 2 0->22] [0 0 0 0->0]
r 0.120422024 _0_ MAC  --- 6 DSR 44 [13a 0 16 800] ------- [22:255 0:255 254 0] 2 [0 2] [1 2 2 0->22] [0 0 0 0->0]
s 0.120432024 _0_ MAC  --- 0 ACK 38 [0 16 0 0] 
r 0.120447024 _0_ RTR  --- 6 DSR 44 [13a 0 16 800] ------- [22:255 0:255 254 0] 2 [0 2] [1 2 2 0->22] [0 0 0 0->0]
SFESTs 0.120447024 _0_ 4 [0 -> 22] 3(1) to 22 [0 |22 ]
s 0.120447024 _0_ RTR  --- 4 cbr 1036 [0 0 0 0] ------- [0:1 22:0 32 22] [0] 0 0
r 0.120736888 _22_ MAC  --- 0 ACK 38 [0 16 0 0] 
s 0.120986024 _0_ MAC  --- 0 RTS 44 [24ae 16 0 0] 
r 0.121338888 _22_ MAC  --- 0 RTS 44 [24ae 16 0 0] 
s 0.121348888 _22_ MAC  --- 0 CTS 38 [2374 0 0 0] 
r 0.121653753 _0_ MAC  --- 0 CTS 38 [2374 0 0 0] 
s 0.121663753 _0_ MAC  --- 4 cbr 1094 [13a 16 0 800] ------- [0:1 22:0 32 22] [0] 0 0
r 0.130416617 _22_ MAC  --- 4 cbr 1036 [13a 16 0 800] ------- [0:1 22:0 32 22] [0] 1 0
s 0.130426617 _22_ MAC  --- 0 ACK 38 [0 0 0 0] 
r 0.130441617 _22_ RTR  --- 4 cbr 1036 [13a 16 0 800] ------- [0:1 22:0 32 22] [0] 1 0
r 0.130441617 _22_ AGT  --- 4 cbr 1000 [13a 16 0 800] ------- [0:1 22:0 32 22] [0] 1 0
r 0.130731482 _0_ MAC  --- 0 ACK 38 [0 0 0 0] 
s 0.140000000 _0_ AGT  --- 7 cbr 1000 [0 0 0 0] ------- [0:0 18:0 32 0] [2] 0 0
r 0.140000000 _0_ RTR  --- 7 cbr 1000 [0 0 0 0] ------- [0:0 18:0 32 0] [2] 0 0
SFESTs 0.140000000 _0_ 7 [0 -> 18] 1(1) to 18 [0 |18 ]
s 0.140000000 _0_ RTR  --- 7 cbr 1036 [0 0 0 0] ------- [0:0 18:0 32 18] [2] 0 0
s 0.140475000 _0_ MAC  --- 0 RTS 44 [24ae 12 0 0] 
r 0.140827533 _18_ MAC  --- 0 RTS 44 [24ae 12 0 0] 
s 0.140837533 _18_ MAC  --- 0 CTS 38 [2374 0 0 0] 
r 0.141142066 _0_ MAC  --- 0 CTS 38 [2374 0 0 0] 
s 0.141152066 _0_ MAC  --- 7 cbr 1094 [13a 12 0 800] ------- [0:0 18:0 32 18] [2] 0 0
r 0.149904599 _18_ MAC  --- 7 cbr 1036 [13a 12 0 800] ------- [0:0 18:0 32 18] [2] 1 0
s 0.149914599 _18_ MAC  --- 0 ACK 38 [0 0 0 0] 
r 0.149929599 _18_ RTR  --- 7 cbr 1036 [13a 12 0 800] ------- [0:0 18:0 32 18] [2] 1 0
r 0.149929599 _18_ AGT  --- 7 cbr 1000 [13a 12 0 800] ------- [0:0 18:0 32 18] [2] 1 0
r 0.150219132 _0_ MAC  --- 0 ACK 38 [0 0 0 0] 
s 0.170000000 _0_ AGT  --- 8 cbr 1000 [0 0 0 0] ------- [0:1 22:0 32 0] [1] 0 0
r 0.170000000 _0_ RTR  --- 8 cbr 1000 [0 0 0 0] ------- [0:1 22:0 32 0] [1] 0 0
SFESTs 0.170000000 _0_ 8 [0 -> 22] 3(1) to 22 [0 |22 ]
s 0.170000000 _0_ RTR  --- 8 cbr 1036 [0 0 0 0] ------- [0:1 22:0 32 22] [1] 0 0
s 0.170075000 _0_ MAC  --- 0 RTS 44 [24ae 16 0 0] 
r 0.170427865 _22_ MAC  --- 0 RTS 44 [24ae 16 0 0] 
s 0.170437865 _22_ MAC  --- 0 CTS 38 [2374 0 0 0] 
r 0.170742729 _0_ MAC  --- 0 CTS 38 [2374 0 0 0] 
s 0.170752729 _0_ MAC  --- 8 cbr 1094 [13a 16 0 800] ------- [0:1 22:0 32 22] [1] 0 0
r 0.179505594 _22_ MAC  --- 8 cbr 1036 [13a 16 0 800] ------- [0:1 22:0 32 22] [1] 1 0
s 0.179515594 _22_ MAC  --- 0 ACK 38 [0 0 0 0] 
r 0.179530594 _22_ RTR  --- 8 cbr 1036 [13a 16 0 800] ------- [0:1 22:0 32 22] [1] 1 0
r 0.179530594 _22_ AGT  --- 8 cbr 1000 [13a 16 0 800] ------- [0:1 22:0 32 22] [1] 1 0
r 0.179820458 _0_ MAC  --- 0 ACK 38 [0 0 0 0] 
M 0.20000 4 (201.00, 552.00, 0.00), (309.00, 211.00), 20.00
M 0.20000 20 (741.00, 152.00, 0.00), (159.00, 722.00), 20.00
s 0.210000000 _0_ AGT  --- 9 cbr 1000 [0 0 0 0] ------- [0:0 18:0 32 0] [3] 0 0
r 0.210000000 _0_ RTR  --- 9 cbr 1000 [0 0 0 0] ------- [0:0 18:0 32 0] [3] 0 0
SFs 0.210000000 _0_ 9 [0 -> 18] 1(0) to 18 
s 0.210000000 _0_ RTR  --- 9 cbr 1020 [0 0 0 0] ------- [0:0 18:0 32 18] [3] 0 0
s 0.210275000 _0_ MAC  --- 0 RTS 44 [242e 12 0 0] 
r 0.210627533 _18_ MAC  --- 0 RTS 44 [242e 12 0 0] 
s 0.210637533 _18_ MAC  --- 0 CTS 38 [22f4 0 0 0] 
r 0.210942066 _0_ MAC  --- 0 CTS 38 [22f4 0 0 0] 
s 0.210952066 _0_ MAC  --- 9 cbr 1078 [13a 12 0 800] ------- [0:0 18:0 32 18] [3] 0 0
r 0.219576599 _18_ MAC  --- 9 cbr 1020 [13a 12 0 800] ------- [0:0 18:0 32 18] [3] 1 0
s 0.219586599 _18_ MAC  --- 0 ACK 38 [0 0 0 0] 
r 0.219601599 _18_ RTR  --- 9 cbr 1020 [13a 12 0 800] ------- [0:0 18:0 32 18] [3] 1 0
r 0.219601599 _18_ AGT  --- 9 cbr 1000 [13a 12 0 800] ------- [0:0 18:0 32 18] [3] 1 0
r 0.219891132 _0_ MAC  --- 0 ACK 38 [0 0 0 0] 
s 0.240000000 _0_ AGT  --- 10 cbr 1000 [0 0 0 0] ------- [0:1 22:0 32 0] [2] 0 0
r 0.240000000 _0_ RTR  --- 10 cbr 1000 [0 0 0 0] ------- [0:1 22:0 32 0] [2] 0 0
SFESTs 0.240000000 _0_ 10 [0 -> 22] 3(1) to 22 [0 |22 ]
s 0.240000000 _0_ RTR  --- 10 cbr 1036 [0 0 0 0] ------- [0:1 22:0 32 22] [2] 0 0
s 0.240295000 _0_ MAC  --- 0 RTS 44 [24ae 16 0 0] 
r 0.240647865 _22_ MAC  --- 0 RTS 44 [24ae 16 0 0] 
s 0.240657865 _22_ MAC  --- 0 CTS 38 [2374 0 0 0] 
r 0.240962729 _0_ MAC  --- 0 CTS 38 [2374 0 0 0] 
s 0.240972729 _0_ MAC  --- 10 cbr 1094 [13a 16 0 800] ------- [0:1 22:0 32 22] [2] 0 0
r 0.249725594 _22_ MAC  --- 10 cbr 1036 [13a 16 0 800] ------- [0:1 22:0 32 22] [2] 1 0
s 0.249735594 _22_ MAC  --- 0 ACK 38 [0 0 0 0] 
r 0.249750594 _22_ RTR  --- 10 cbr 1036 [13a 16 0 800] ------- [0:1 22:0 32 22] [2] 1 0
r 0.249750594 _22_ AGT  --- 10 cbr 1000 [13a 16 0 800] ------- [0:1 22:0 32 22] [2] 1 0
M 0.25000 13 (569.00, 167.00, 0.00), (551.00, 624.00), 25.00
r 0.250040458 _0_ MAC  --- 0 ACK 38 [0 0 0 0] 
s 0.280000000 _0_ AGT  --- 11 cbr 1000 [0 0 0 0] ------- [0:0 18:0 32 0] [4] 0 0
r 0.280000000 _0_ RTR  --- 11 cbr 1000 [0 0 0 0] ------- [0:0 18:0 32 0] [4] 0 0
SFs 0.280000000 _0_ 11 [0 -> 18] 1(0) to 18 
s 0.280000000 _0_ RTR  --- 11 cbr 1020 [0 0 0 0] ------- [0:0 18:0 32 18] [4] 0 0
s 0.280595000 _0_ MAC  --- 0 RTS 44 [242e 12 0 0] 
r 0.280947533 _18_ MAC  --- 0 RTS 44 [242e 12 0 0] 
s 0.280957533 _18_ MAC  --- 0 CTS 38 [22f4 0 0 0] 
r 0.281262066 _0_ MAC  --- 0 CTS 38 [22f4 0 0 0] 
s 0.281272066 _0_ MAC  --- 11 cbr 1078 [13a 12 0 800] ------- [0:0 18:0 32 18] [4] 0 0
r 0.289896599 _18_ MAC  --- 11 cbr 1020 [13a 12 0 800] ------- [0:0 18:0 32 18] [4] 1 0
s 0.289906599 _18_ MAC  --- 0 ACK 38 [0 0 0 0] 
r 0.289921599 _18_ RTR  --- 11 cbr 1020 [13a 12 0 800] ------- [0:0 18:0 32 18] [4] 1 0
r 0.289921599 _18_ AGT  --- 11 cbr 1000 [13a 12 0 800] ------- [0:0 18:0 32 18] [4] 1 0
r 0.290211132 _0_ MAC  --- 0 ACK 38 [0 0 0 0] 
s 0.310000000 _0_ AGT  --- 12 cbr 1000 [0 0 0 0] ------- [0:1 22:0 32 0] [3] 0 0
r 0.310000000 _0_ RTR  --- 12 cbr 1000 [0 0 0 0] ------- [0:1 22:0 32 0] [3] 0 0
SFs 0.310000000 _0_ 12 [0 -> 22] 3(0) to 22 
s 0.310000000 _0_ RTR  --- 12 cbr 1020 [0 0 0 0] ------- [0:1 22:0 32 22] [3] 0 0
s 0.310675000 _0_ MAC  --- 0 RTS 44 [242e 16 0 0] 
r 0.311027865 _22_ MAC  --- 0 RTS 44 [242e 16 0 0] 
s 0.311037865 _22_ MAC  --- 0 CTS 38 [22f4 0 0 0] 
r 0.311342729 _0_ MAC  --- 0 CTS 38 [22f4 0 0 0] 
s 0.311352729 _0_ MAC  --- 12 cbr 1078 [13a 16 0 800] ------- [0:1 22:0 32 22] [3] 0 0
r 0.319977594 _22_ MAC  --- 12 cbr 1020 [13a 16 0 800] ------- [0:1 22:0 32 22] [3] 1 0
s 0.319987594 _22_ MAC  --- 0 ACK 38 [0 0 0 0] 
r 0.320002594 _22_ RTR  --- 12 cbr 1020 [13a 16 0 800] ------- [0:1 22:0 32 22] [3] 1 0
r 0.320002594 _22_ AGT  --- 12 cbr 1000 [13a 16 0 800] ------- [0:1 22:0 32 22] [3] 1 0
r 0.320292458 _0_ MAC  --- 0 ACK 38 [0 0 0 0] 
s 0.350000000 _0_ AGT  --- 13 cbr 1000 [0 0 0 0] ------- [0:0 18:0 32 0] [5] 0 0
r 0.350000000 _0_ RTR  --- 13 cbr 1000 [0 0 0 0] ------- [0:0 18:0 32 0] [5] 0 0
SFs 0.350000000 _0_ 13 [0 -> 18] 1(0) to 18 
s 0.350000000 _0_ RTR  --- 13 cbr 1020 [0 0 0 0] ------- [0:0 18:0 32 18] [5] 0 0
s 0.350415000 _0_ MAC  --- 0 RTS 44 [242e 12 0 0] 
r 0.350767533 _18_ MAC  --- 0 RTS 44 [242e 12 0 0] 
s 0.350777533 _18_ MAC  --- 0 CTS 38 [22f4 0 0 0] 
r 0.351082066 _0_ MAC  --- 0 CTS 38 [22f4 0 0 0] 
s 0.351092066 _0_ MAC  --- 13 cbr 1078 [13a 12 0 800] ------- [0:0 18:0 32 18] [5] 0 0
r 0.359716599 _18_ MAC  --- 13 cbr 1020 [13a 12 0 800] ------- [0:0 18:0 32 18] [5] 1 0
s 0.359726599 _18_ MAC  --- 0 ACK 38 [0 0 0 0] 
r 0.359741599 _18_ RTR  --- 13 cbr 1020 [13a 12 0 800] ------- [0:0 18:0 32 18] [5] 1 0
r 0.359741599 _18_ AGT  --- 13 cbr 1000 [13a 12 0 800] ------- [0:0 18:0 32 18] [5] 1 0
r 0.360031132 _0_ MAC  --- 0 ACK 38 [0 0 0 0] 
s 0.380000000 _0_ AGT  --- 14 cbr 1000 [0 0 0 0] ------- [0:1 22:0 32 0] [4] 0 0
r 0.380000000 _0_ RTR  --- 14 cbr 1000 [0 0 0 0] ------- [0:1 22:0 32 0] [4] 0 0
SFs 0.380000000 _0_ 14 [0 -> 22] 3(0) to 22 
s 0.380000000 _0_ RTR  --- 14 cbr 1020 [0 0 0 0] ------- [0:1 22:0 32 22] [4] 0 0
s 0.380095000 _0_ MAC  --- 0 RTS 44 [242e 16 0 0] 
r 0.380447865 _22_ MAC  --- 0 RTS 44 [242e 16 0 0] 
s 0.380457865 _22_ MAC  --- 0 CTS 38 [22f4 0 0 0] 
r 0.380762729 _0_ MAC  --- 0 CTS 38 [22f4 0 0 0] 
s 0.380772729 _0_ MAC  --- 14 cbr 1078 [13a 16 0 800] ------- [0:1 22:0 32 22] [4] 0 0
r 0.389397594 _22_ MAC  --- 14 cbr 1020 [13a 16 0 800] ------- [0:1 22:0 32 22] [4] 1 0
s 0.389407594 _22_ MAC  --- 0 ACK 38 [0 0 0 0] 
r 0.389422594 _22_ RTR  --- 14 cbr 1020 [13a 16 0 800] ------- [0:1 22:0 32 22] [4] 1 0
r 0.389422594 _22_ AGT  --- 14 cbr 1000 [13a 16 0 800] ------- [0:1 22:0 32 22] [4] 1 0
r 0.389712458 _0_ MAC  --- 0 ACK 38 [0 0 0 0] 
s 0.420000000 _0_ AGT  --- 15 cbr 1000 [0 0 0 0] ------- [0:0 18:0 32 0] [6] 0 0
r 0.420000000 _0_ RTR  --- 15 cbr 1000 [0 0 0 0] ------- [0:0 18:0 32 0] [6] 0 0
SFs 0.420000000 _0_ 15 [0 -> 18] 1(0) to 18 
s 0.420000000 _0_ RTR  --- 15 cbr 1020 [0 0 0 0] ------- [0:0 18:0 32 18] [6] 0 0
s 0.420475000 _0_ MAC  --- 0 RTS 44 [242e 12 0 0] 
r 0.420827533 _18_ MAC  --- 0 RTS 44 [242e 12 0 0] 
s 0.420837533 _18_ MAC  --- 0 CTS 38 [22f4 0 0 0] 
r 0.421142066 _0_ MAC  --- 0 CTS 38 [22f4 0 0 0] 
s 0.421152066 _0_ MAC  --- 15 cbr 1078 [13a 12 0 800] ------- [0:0 18:0 32 18] [6] 0 0
r 0.429776599 _18_ MAC  --- 15 cbr 1020 [13a 12 0 800] ------- [0:0 18:0 32 18] [6] 1 0
s 0.429786599 _18_ MAC  --- 0 ACK 38 [0 0 0 0] 
r 0.429801599 _18_ RTR  --- 15 cbr 1020 [13a 12 0 800] ------- [0:0 18:0 32 18] [6] 1 0
r 0.429801599 _18_ AGT  --- 15 cbr 1000 [13a 12 0 800] ------- [0:0 18:0 32 18] [6] 1 0
r 0.430091132 _0_ MAC  --- 0 ACK 38 [0 0 0 0] 
s 0.450000000 _0_ AGT  --- 16 cbr 1000 [0 0 0 0] ------- [0:1 22:0 32 0] [5] 0 0
r 0.450000000 _0_ RTR  --- 16 cbr 1000 [0 0 0 0] ------- [0:1 22:0 32 0] [5] 0 0
SFs 0.450000000 _0_ 16 [0 -> 22] 3(0) to 22 
s 0.450000000 _0_ RTR  --- 16 cbr 1020 [0 0 0 0] ------- [0:1 22:0 32 22] [5] 0 0
s 0.450275000 _0_ MAC  --- 0 RTS 44 [242e 16 0 0] 
r 0.450627865 _22_ MAC  --- 0 RTS 44 [242e 16 0 0] 
s 0.450637865 _22_ MAC  --- 0 CTS 38 [22f4 0 0 0] 
r 0.450942729 _0_ MAC  --- 0 CTS 38 [22f4 0 0 0] 
s 0.450952729 _0_ MAC  --- 16 cbr 1078 [13a 16 0 800] ------- [0:1 22:0 32 22] [5] 0 0
r 0.459577594 _22_ MAC  --- 16 cbr 1020 [13a 16 0 800] ------- [0:1 22:0 32 22] [5] 1 0
s 0.459587594 _22_ MAC  --- 0 ACK 38 [0 0 0 0] 
r 0.459602594 _22_ RTR  --- 16 cbr 1020 [13a 16 0 800] ------- [0:1 22:0 32 22] [5] 1 0
r 0.459602594 _22_ AGT  --- 16 cbr 1000 [13a 16 0 800] ------- [0:1 22:0 32 22] [5] 1 0
r 0.459892458 _0_ MAC  --- 0 ACK 38 [0 0 0 0] 
s 0.490000000 _0_ AGT  --- 17 cbr 1000 [0 0 0 0] ------- [0:0 18:0 32 0] [7] 0 0
r 0.490000000 _0_ RTR  --- 17 cbr 1000 [0 0 0 0] ------- [0:0 18:0 32 0] [7] 0 0
SFs 0.490000000 _0_ 17 [0 -> 18] 1(0) to 18 