n -t * -s 0  -x 513 -y 517 -Z 0 -z 75  -v circle -c black
n -t * -s 1  -x 1445 -y 474 -Z 0 -z 75  -v circle -c black
n -t * -s 2  -x 36 -y 529 -Z 0 -z 40  -v circle -c black
n -t * -s 3  -x 143 -y 666 -Z 0 -z 40  -v circle -c black
n -t * -s 4  -x 201 -y 552 -Z 0 -z 40  -v circle -c black
n -t * -s 5  -x 147 -y 403 -Z 0 -z 40  -v circle -c black
n -t * -s 6  -x 230 -y 291 -Z 0 -z 40  -v circle -c black
n -t * -s 7  -x 295 -y 419 -Z 0 -z 40  -v circle -c black
n -t * -s 8  -x 363 -y 335 -Z 0 -z 40  -v circle -c black
n -t * -s 9  -x 334 -y 647 -Z 0 -z 40  -v circle -c black
n -t * -s 10  -x 304 -y 777 -Z 0 -z 40  -v circle -c black
n -t * -s 11  -x 412 -y 194 -Z 0 -z 40  -v circle -c black
n -t * -s 12  -x 519 -y 361 -Z 0 -z 40  -v circle -c black
n -t * -s 13  -x 569 -y 167 -Z 0 -z 40  -v circle -c black
n -t * -s 14  -x 349 -y 546 -Z 0 -z 40  -v circle -c black
n -t * -s 15  -x 466 -y 668 -Z 0 -z 40  -v circle -c black
n -t * -s 16  -x 489 -y 794 -Z 0 -z 40  -v circle -c black
n -t * -s 17  -x 606 -y 711 -Z 0 -z 40  -v circle -c black
n -t * -s 18  -x 630 -y 626 -Z 0 -z 40  -v circle -c black
n -t * -s 19  -x 666 -y 347 -Z 0 -z 40  -v circle -c black
n -t * -s 20  -x 741 -y 152 -Z 0 -z 40  -v circle -c black
n -t * -s 21  -x 882 -y 264 -Z 0 -z 40  -v circle -c black
n -t * -s 22  -x 761 -y 441 -Z 0 -z 40  -v circle -c black
V -t * -v 1.0a5 -a 0
W -t * -x 1800 -y 840
A -t * -n 1 -p 0 -o 0x7fffffff -c 30 -a 1
A -t * -h 1 -m 1073741823 -s 0
n -t 0 -s 0 -S DLABEL -l "Server1" -L ""
n -t 0 -s 1 -S DLABEL -l "Server2" -L ""
n -t 0 -s 0 -S COLOR -c maroon -o maroon -i maroon -I maroon
n -t 0 -s 1 -S COLOR -c maroon -o maroon -i maroon -I maroon
v -t 0 set_rate_ext 0.014999999999999999 1
+ -t 0.000000000 -s 0 -d -1 -p cbr -e 1000 -c 2 -a 0 -i 0 -k AGT 
- -t 0.000000000 -s 0 -d -1 -p cbr -e 1000 -c 2 -a 0 -i 0 -k AGT
h -t 0.000000000 -s 0 -d -1 -p cbr -e 1000 -c 2 -a 0 -i 0 -k AGT
v -t 0 -e sim_annotation 0 1 MOBILE NODE MOVEMENTS
+ -t 0.000672435 -s 0 -d -1 -p DSR -e 32 -c 2 -a 0 -i 1 -k RTR 
- -t 0.000672435 -s 0 -d -1 -p DSR -e 32 -c 2 -a 0 -i 1 -k RTR
h -t 0.000672435 -s 0 -d -1 -p DSR -e 32 -c 2 -a 0 -i 1 -k RTR
+ -t 0.000887435 -s 0 -d -1 -p DSR -e 90 -c 2 -a 0 -i 1 -k MAC 
- -t 0.000887435 -s 0 -d -1 -p DSR -e 90 -c 2 -a 0 -i 1 -k MAC
h -t 0.000887435 -s 0 -d -1 -p DSR -e 90 -c 2 -a 0 -i 1 -k MAC
r -t 0.001607956 -s 12 -d -1 -p DSR -e 32 -c 2 -a 0 -i 1 -k MAC
r -t 0.001607962 -s 15 -d -1 -p DSR -e 32 -c 2 -a 0 -i 1 -k MAC
r -t 0.001607968 -s 18 -d -1 -p DSR -e 32 -c 2 -a 0 -i 1 -k MAC
r -t 0.001607990 -s 14 -d -1 -p DSR -e 32 -c 2 -a 0 -i 1 -k MAC
r -t 0.001608152 -s 17 -d -1 -p DSR -e 32 -c 2 -a 0 -i 1 -k MAC
r -t 0.001608173 -s 9 -d -1 -p DSR -e 32 -c 2 -a 0 -i 1 -k MAC
r -t 0.001608198 -s 19 -d -1 -p DSR -e 32 -c 2 -a 0 -i 1 -k MAC
r -t 0.001608221 -s 8 -d -1 -p DSR -e 32 -c 2 -a 0 -i 1 -k MAC
r -t 0.001608232 -s 7 -d -1 -p DSR -e 32 -c 2 -a 0 -i 1 -k MAC
r -t 0.001608300 -s 22 -d -1 -p DSR -e 32 -c 2 -a 0 -i 1 -k MAC
r -t 0.001608362 -s 16 -d -1 -p DSR -e 32 -c 2 -a 0 -i 1 -k MAC
r -t 0.001608482 -s 4 -d -1 -p DSR -e 32 -c 2 -a 0 -i 1 -k MAC
r -t 0.001608547 -s 10 -d -1 -p DSR -e 32 -c 2 -a 0 -i 1 -k MAC
r -t 0.001608563 -s 11 -d -1 -p DSR -e 32 -c 2 -a 0 -i 1 -k MAC
r -t 0.001608617 -s 13 -d -1 -p DSR -e 32 -c 2 -a 0 -i 1 -k MAC
r -t 0.001608642 -s 6 -d -1 -p DSR -e 32 -c 2 -a 0 -i 1 -k MAC
r -t 0.001608713 -s 5 -d -1 -p DSR -e 32 -c 2 -a 0 -i 1 -k MAC
r -t 0.001608765 -s 3 -d -1 -p DSR -e 32 -c 2 -a 0 -i 1 -k MAC
r -t 0.001608870 -s 20 -d -1 -p DSR -e 32 -c 2 -a 0 -i 1 -k MAC
r -t 0.001608926 -s 21 -d -1 -p DSR -e 32 -c 2 -a 0 -i 1 -k MAC
r -t 0.001609026 -s 2 -d -1 -p DSR -e 32 -c 2 -a 0 -i 1 -k MAC
r -t 0.001610545 -s 1 -d -1 -p DSR -e 32 -c 2 -a 0 -i 1 -k MAC
+ -t 0.009701913 -s 18 -d 0 -p DSR -e 44 -c 2 -a 0 -i 2 -k RTR 
- -t 0.009701913 -s 18 -d 0 -p DSR -e 44 -c 2 -a 0 -i 2 -k RTR
h -t 0.009701913 -s 18 -d 0 -p DSR -e 44 -c 2 -a 0 -i 2 -k RTR
+ -t 0.009976913 -s 18 -d -1 -p ARP -e 86 -c 2 -a 0 -i 0 -k MAC 
- -t 0.009976913 -s 18 -d -1 -p ARP -e 86 -c 2 -a 0 -i 0 -k MAC
h -t 0.009976913 -s 18 -d -1 -p ARP -e 86 -c 2 -a 0 -i 0 -k MAC
r -t 0.010665208 -s 17 -d -1 -p ARP -e 28 -c 2 -a 0 -i 0 -k MAC
r -t 0.010665446 -s 0 -d -1 -p ARP -e 28 -c 2 -a 0 -i 0 -k MAC
r -t 0.010665478 -s 15 -d -1 -p ARP -e 28 -c 2 -a 0 -i 0 -k MAC
r -t 0.010665644 -s 16 -d -1 -p ARP -e 28 -c 2 -a 0 -i 0 -k MAC
r -t 0.010665669 -s 22 -d -1 -p ARP -e 28 -c 2 -a 0 -i 0 -k MAC
r -t 0.010665851 -s 19 -d -1 -p ARP -e 28 -c 2 -a 0 -i 0 -k MAC
r -t 0.010665871 -s 12 -d -1 -p ARP -e 28 -c 2 -a 0 -i 0 -k MAC
r -t 0.010665887 -s 14 -d -1 -p ARP -e 28 -c 2 -a 0 -i 0 -k MAC
r -t 0.010665902 -s 9 -d -1 -p ARP -e 28 -c 2 -a 0 -i 0 -k MAC
r -t 0.010666111 -s 10 -d -1 -p ARP -e 28 -c 2 -a 0 -i 0 -k MAC
r -t 0.010666226 -s 7 -d -1 -p ARP -e 28 -c 2 -a 0 -i 0 -k MAC
r -t 0.010666230 -s 8 -d -1 -p ARP -e 28 -c 2 -a 0 -i 0 -k MAC
r -t 0.010666364 -s 4 -d -1 -p ARP -e 28 -c 2 -a 0 -i 0 -k MAC
r -t 0.010666384 -s 21 -d -1 -p ARP -e 28 -c 2 -a 0 -i 0 -k MAC
r -t 0.010666457 -s 13 -d -1 -p ARP -e 28 -c 2 -a 0 -i 0 -k MAC
r -t 0.010666526 -s 11 -d -1 -p ARP -e 28 -c 2 -a 0 -i 0 -k MAC
r -t 0.010666536 -s 20 -d -1 -p ARP -e 28 -c 2 -a 0 -i 0 -k MAC
r -t 0.010666542 -s 3 -d -1 -p ARP -e 28 -c 2 -a 0 -i 0 -k MAC
r -t 0.010666653 -s 6 -d -1 -p ARP -e 28 -c 2 -a 0 -i 0 -k MAC
r -t 0.010666687 -s 5 -d -1 -p ARP -e 28 -c 2 -a 0 -i 0 -k MAC
r -t 0.010666920 -s 2 -d -1 -p ARP -e 28 -c 2 -a 0 -i 0 -k MAC
r -t 0.010667677 -s 1 -d -1 -p ARP -e 28 -c 2 -a 0 -i 0 -k MAC
+ -t 0.010860446 -s 0 -d -1 -p RTS -e 44 -c 2 -a 0 -i 0 -k MAC 
- -t 0.010860446 -s 0 -d -1 -p RTS -e 44 -c 2 -a 0 -i 0 -k MAC
h -t 0.010860446 -s 0 -d -1 -p RTS -e 44 -c 2 -a 0 -i 0 -k MAC
r -t 0.011212979 -s 18 -d -1 -p RTS -e 44 -c 2 -a 0 -i 0 -k MAC
+ -t 0.011222979 -s 18 -d -1 -p CTS -e 38 -c 2 -a 0 -i 0 -k MAC 
- -t 0.011222979 -s 18 -d -1 -p CTS -e 38 -c 2 -a 0 -i 0 -k MAC
h -t 0.011222979 -s 18 -d -1 -p CTS -e 38 -c 2 -a 0 -i 0 -k MAC
r -t 0.011527512 -s 0 -d -1 -p CTS -e 38 -c 2 -a 0 -i 0 -k MAC
+ -t 0.011537512 -s 0 -d -1 -p ARP -e 86 -c 2 -a 0 -i 0 -k MAC 
- -t 0.011537512 -s 0 -d -1 -p ARP -e 86 -c 2 -a 0 -i 0 -k MAC
h -t 0.011537512 -s 0 -d -1 -p ARP -e 86 -c 2 -a 0 -i 0 -k MAC
r -t 0.012226045 -s 18 -d -1 -p ARP -e 28 -c 2 -a 0 -i 0 -k MAC
+ -t 0.012236045 -s 18 -d -1 -p ACK -e 38 -c 2 -a 0 -i 0 -k MAC 
- -t 0.012236045 -s 18 -d -1 -p ACK -e 38 -c 2 -a 0 -i 0 -k MAC
h -t 0.012236045 -s 18 -d -1 -p ACK -e 38 -c 2 -a 0 -i 0 -k MAC
r -t 0.012540578 -s 0 -d -1 -p ACK -e 38 -c 2 -a 0 -i 0 -k MAC
+ -t 0.012910045 -s 18 -d -1 -p RTS -e 44 -c 2 -a 0 -i 0 -k MAC 
- -t 0.012910045 -s 18 -d -1 -p RTS -e 44 -c 2 -a 0 -i 0 -k MAC
h -t 0.012910045 -s 18 -d -1 -p RTS -e 44 -c 2 -a 0 -i 0 -k MAC
r -t 0.013262578 -s 0 -d -1 -p RTS -e 44 -c 2 -a 0 -i 0 -k MAC
+ -t 0.013272578 -s 0 -d -1 -p CTS -e 38 -c 2 -a 0 -i 0 -k MAC 
- -t 0.013272578 -s 0 -d -1 -p CTS -e 38 -c 2 -a 0 -i 0 -k MAC
h -t 0.013272578 -s 0 -d -1 -p CTS -e 38 -c 2 -a 0 -i 0 -k MAC
r -t 0.013577111 -s 18 -d -1 -p CTS -e 38 -c 2 -a 0 -i 0 -k MAC
+ -t 0.013587111 -s 18 -d 0 -p DSR -e 102 -c 2 -a 0 -i 2 -k MAC 
- -t 0.013587111 -s 18 -d 0 -p DSR -e 102 -c 2 -a 0 -i 2 -k MAC
h -t 0.013587111 -s 18 -d 0 -p DSR -e 102 -c 2 -a 0 -i 2 -k MAC
r -t 0.014403644 -s 0 -d 0 -p DSR -e 44 -c 2 -a 0 -i 2 -k MAC
+ -t 0.014413644 -s 0 -d -1 -p ACK -e 38 -c 2 -a 0 -i 0 -k MAC 
- -t 0.014413644 -s 0 -d -1 -p ACK -e 38 -c 2 -a 0 -i 0 -k MAC
h -t 0.014413644 -s 0 -d -1 -p ACK -e 38 -c 2 -a 0 -i 0 -k MAC
+ -t 0.014428644 -s 0 -d 18 -p cbr -e 1036 -c 2 -a 0 -i 0 -k RTR 
- -t 0.014428644 -s 0 -d 18 -p cbr -e 1036 -c 2 -a 0 -i 0 -k RTR
h -t 0.014428644 -s 0 -d 18 -p cbr -e 1036 -c 2 -a 0 -i 0 -k RTR
r -t 0.014718178 -s 18 -d -1 -p ACK -e 38 -c 2 -a 0 -i 0 -k MAC
+ -t 0.014907644 -s 0 -d -1 -p RTS -e 44 -c 2 -a 0 -i 0 -k MAC 
- -t 0.014907644 -s 0 -d -1 -p RTS -e 44 -c 2 -a 0 -i 0 -k MAC
h -t 0.014907644 -s 0 -d -1 -p RTS -e 44 -c 2 -a 0 -i 0 -k MAC
r -t 0.015260178 -s 18 -d -1 -p RTS -e 44 -c 2 -a 0 -i 0 -k MAC
+ -t 0.015270178 -s 18 -d -1 -p CTS -e 38 -c 2 -a 0 -i 0 -k MAC 
- -t 0.015270178 -s 18 -d -1 -p CTS -e 38 -c 2 -a 0 -i 0 -k MAC
h -t 0.015270178 -s 18 -d -1 -p CTS -e 38 -c 2 -a 0 -i 0 -k MAC
r -t 0.015574711 -s 0 -d -1 -p CTS -e 38 -c 2 -a 0 -i 0 -k MAC
+ -t 0.015584711 -s 0 -d 18 -p cbr -e 1094 -c 2 -a 0 -i 0 -k MAC 
- -t 0.015584711 -s 0 -d 18 -p cbr -e 1094 -c 2 -a 0 -i 0 -k MAC
h -t 0.015584711 -s 0 -d 18 -p cbr -e 1094 -c 2 -a 0 -i 0 -k MAC
r -t 0.024337244 -s 18 -d 18 -p cbr -e 1036 -c 2 -a 0 -i 0 -k MAC
+ -t 0.024347244 -s 18 -d -1 -p ACK -e 38 -c 2 -a 0 -i 0 -k MAC 
- -t 0.024347244 -s 18 -d -1 -p ACK -e 38 -c 2 -a 0 -i 0 -k MAC
h -t 0.024347244 -s 18 -d -1 -p ACK -e 38 -c 2 -a 0 -i 0 -k MAC
r -t 0.024362244 -s 18 -d 18 -p cbr -e 1000 -c 2 -a 0 -i 0 -k AGT
r -t 0.024651777 -s 0 -d -1 -p ACK -e 38 -c 2 -a 0 -i 0 -k MAC
+ -t 0.070000000 -s 0 -d -1 -p cbr -e 1000 -c 2 -a 0 -i 3 -k AGT 
- -t 0.070000000 -s 0 -d -1 -p cbr -e 1000 -c 2 -a 0 -i 3 -k AGT
h -t 0.070000000 -s 0 -d -1 -p cbr -e 1000 -c 2 -a 0 -i 3 -k AGT
+ -t 0.070000000 -s 0 -d 18 -p cbr -e 1036 -c 2 -a 0 -i 3 -k RTR 
- -t 0.070000000 -s 0 -d 18 -p cbr -e 1036 -c 2 -a 0 -i 3 -k RTR
h -t 0.070000000 -s 0 -d 18 -p cbr -e 1036 -c 2 -a 0 -i 3 -k RTR
+ -t 0.070195000 -s 0 -d -1 -p RTS -e 44 -c 2 -a 0 -i 0 -k MAC 
- -t 0.070195000 -s 0 -d -1 -p RTS -e 44 -c 2 -a 0 -i 0 -k MAC
h -t 0.070195000 -s 0 -d -1 -p RTS -e 44 -c 2 -a 0 -i 0 -k MAC
r -t 0.070547533 -s 18 -d -1 -p RTS -e 44 -c 2 -a 0 -i 0 -k MAC
+ -t 0.070557533 -s 18 -d -1 -p CTS -e 38 -c 2 -a 0 -i 0 -k MAC 
- -t 0.070557533 -s 18 -d -1 -p CTS -e 38 -c 2 -a 0 -i 0 -k MAC
h -t 0.070557533 -s 18 -d -1 -p CTS -e 38 -c 2 -a 0 -i 0 -k MAC
r -t 0.070862066 -s 0 -d -1 -p CTS -e 38 -c 2 -a 0 -i 0 -k MAC
+ -t 0.070872066 -s 0 -d 18 -p cbr -e 1094 -c 2 -a 0 -i 3 -k MAC 
- -t 0.070872066 -s 0 -d 18 -p cbr -e 1094 -c 2 -a 0 -i 3 -k MAC
h -t 0.070872066 -s 0 -d 18 -p cbr -e 1094 -c 2 -a 0 -i 3 -k MAC
r -t 0.079624599 -s 18 -d 18 -p cbr -e 1036 -c 2 -a 0 -i 3 -k MAC
+ -t 0.079634599 -s 18 -d -1 -p ACK -e 38 -c 2 -a 0 -i 0 -k MAC 
- -t 0.079634599 -s 18 -d -1 -p ACK -e 38 -c 2 -a 0 -i 0 -k MAC
h -t 0.079634599 -s 18 -d -1 -p ACK -e 38 -c 2 -a 0 -i 0 -k MAC
r -t 0.079649599 -s 18 -d 18 -p cbr -e 1000 -c 2 -a 0 -i 3 -k AGT
r -t 0.079939132 -s 0 -d -1 -p ACK -e 38 -c 2 -a 0 -i 0 -k MAC
+ -t 0.100000000 -s 0 -d -1 -p cbr -e 1000 -c 2 -a 0 -i 4 -k AGT 
- -t 0.100000000 -s 0 -d -1 -p cbr -e 1000 -c 2 -a 0 -i 4 -k AGT
h -t 0.100000000 -s 0 -d -1 -p cbr -e 1000 -c 2 -a 0 -i 4 -k AGT
+ -t 0.108622200 -s 0 -d -1 -p DSR -e 32 -c 2 -a 0 -i 5 -k RTR 
- -t 0.108622200 -s 0 -d -1 -p DSR -e 32 -c 2 -a 0 -i 5 -k RTR
h -t 0.108622200 -s 0 -d -1 -p DSR -e 32 -c 2 -a 0 -i 5 -k RTR
+ -t 0.109197200 -s 0 -d -1 -p DSR -e 90 -c 2 -a 0 -i 5 -k MAC 
- -t 0.109197200 -s 0 -d -1 -p DSR -e 90 -c 2 -a 0 -i 5 -k MAC
h -t 0.109197200 -s 0 -d -1 -p DSR -e 90 -c 2 -a 0 -i 5 -k MAC
r -t 0.109917720 -s 12 -d -1 -p DSR -e 32 -c 2 -a 0 -i 5 -k MAC
r -t 0.109917727 -s 15 -d -1 -p DSR -e 32 -c 2 -a 0 -i 5 -k MAC
r -t 0.109917733 -s 18 -d -1 -p DSR -e 32 -c 2 -a 0 -i 5 -k MAC
r -t 0.109917755 -s 14 -d -1 -p DSR -e 32 -c 2 -a 0 -i 5 -k MAC
r -t 0.109917917 -s 17 -d -1 -p DSR -e 32 -c 2 -a 0 -i 5 -k MAC
r -t 0.109917937 -s 9 -d -1 -p DSR -e 32 -c 2 -a 0 -i 5 -k MAC
r -t 0.109917962 -s 19 -d -1 -p DSR -e 32 -c 2 -a 0 -i 5 -k MAC
r -t 0.109917986 -s 8 -d -1 -p DSR -e 32 -c 2 -a 0 -i 5 -k MAC
r -t 0.109917996 -s 7 -d -1 -p DSR -e 32 -c 2 -a 0 -i 5 -k MAC
r -t 0.109918064 -s 22 -d -1 -p DSR -e 32 -c 2 -a 0 -i 5 -k MAC
r -t 0.109918126 -s 16 -d -1 -p DSR -e 32 -c 2 -a 0 -i 5 -k MAC
r -t 0.109918246 -s 4 -d -1 -p DSR -e 32 -c 2 -a 0 -i 5 -k MAC
r -t 0.109918312 -s 10 -d -1 -p DSR -e 32 -c 2 -a 0 -i 5 -k MAC
r -t 0.109918328 -s 11 -d -1 -p DSR -e 32 -c 2 -a 0 -i 5 -k MAC
r -t 0.109918381 -s 13 -d -1 -p DSR -e 32 -c 2 -a 0 -i 5 -k MAC
r -t 0.109918407 -s 6 -d -1 -p DSR -e 32 -c 2 -a 0 -i 5 -k MAC
r -t 0.109918477 -s 5 -d -1 -p DSR -e 32 -c 2 -a 0 -i 5 -k MAC
r -t 0.109918529 -s 3 -d -1 -p DSR -e 32 -c 2 -a 0 -i 5 -k MAC
r -t 0.109918634 -s 20 -d -1 -p DSR -e 32 -c 2 -a 0 -i 5 -k MAC
r -t 0.109918691 -s 21 -d -1 -p DSR -e 32 -c 2 -a 0 -i 5 -k MAC
r -t 0.109918790 -s 2 -d -1 -p DSR -e 32 -c 2 -a 0 -i 5 -k MAC
r -t 0.109920310 -s 1 -d -1 -p DSR -e 32 -c 2 -a 0 -i 5 -k MAC
+ -t 0.115457971 -s 22 -d 0 -p DSR -e 44 -c 2 -a 0 -i 6 -k RTR 
- -t 0.115457971 -s 22 -d 0 -p DSR -e 44 -c 2 -a 0 -i 6 -k RTR
h -t 0.115457971 -s 22 -d 0 -p DSR -e 44 -c 2 -a 0 -i 6 -k RTR
+ -t 0.115712971 -s 22 -d -1 -p ARP -e 86 -c 2 -a 0 -i 0 -k MAC 
- -t 0.115712971 -s 22 -d -1 -p ARP -e 86 -c 2 -a 0 -i 0 -k MAC
h -t 0.115712971 -s 22 -d -1 -p ARP -e 86 -c 2 -a 0 -i 0 -k MAC
r -t 0.116401417 -s 19 -d -1 -p ARP -e 28 -c 2 -a 0 -i 0 -k MAC
r -t 0.116401686 -s 21 -d -1 -p ARP -e 28 -c 2 -a 0 -i 0 -k MAC
r -t 0.116401727 -s 18 -d -1 -p ARP -e 28 -c 2 -a 0 -i 0 -k MAC
r -t 0.116401821 -s 12 -d -1 -p ARP -e 28 -c 2 -a 0 -i 0 -k MAC
r -t 0.116401836 -s 0 -d -1 -p ARP -e 28 -c 2 -a 0 -i 0 -k MAC
r -t 0.116401937 -s 20 -d -1 -p ARP -e 28 -c 2 -a 0 -i 0 -k MAC
r -t 0.116402009 -s 17 -d -1 -p ARP -e 28 -c 2 -a 0 -i 0 -k MAC
r -t 0.116402086 -s 13 -d -1 -p ARP -e 28 -c 2 -a 0 -i 0 -k MAC
r -t 0.116402212 -s 15 -d -1 -p ARP -e 28 -c 2 -a 0 -i 0 -k MAC
r -t 0.116402344 -s 8 -d -1 -p ARP -e 28 -c 2 -a 0 -i 0 -k MAC
r -t 0.116402388 -s 14 -d -1 -p ARP -e 28 -c 2 -a 0 -i 0 -k MAC
r -t 0.116402396 -s 11 -d -1 -p ARP -e 28 -c 2 -a 0 -i 0 -k MAC
r -t 0.116402457 -s 16 -d -1 -p ARP -e 28 -c 2 -a 0 -i 0 -k MAC
r -t 0.116402526 -s 7 -d -1 -p ARP -e 28 -c 2 -a 0 -i 0 -k MAC
r -t 0.116402552 -s 9 -d -1 -p ARP -e 28 -c 2 -a 0 -i 0 -k MAC
r -t 0.116402810 -s 6 -d -1 -p ARP -e 28 -c 2 -a 0 -i 0 -k MAC
r -t 0.116402862 -s 10 -d -1 -p ARP -e 28 -c 2 -a 0 -i 0 -k MAC
r -t 0.116402874 -s 4 -d -1 -p ARP -e 28 -c 2 -a 0 -i 0 -k MAC
r -t 0.116403022 -s 5 -d -1 -p ARP -e 28 -c 2 -a 0 -i 0 -k MAC
r -t 0.116403164 -s 3 -d -1 -p ARP -e 28 -c 2 -a 0 -i 0 -k MAC
r -t 0.116403254 -s 1 -d -1 -p ARP -e 28 -c 2 -a 0 -i 0 -k MAC
r -t 0.116403406 -s 2 -d -1 -p ARP -e 28 -c 2 -a 0 -i 0 -k MAC
+ -t 0.117016836 -s 0 -d -1 -p RTS -e 44 -c 2 -a 0 -i 0 -k MAC 
- -t 0.117016836 -s 0 -d -1 -p RTS -e 44 -c 2 -a 0 -i 0 -k MAC
h -t 0.117016836 -s 0 -d -1 -p RTS -e 44 -c 2 -a 0 -i 0 -k MAC
r -t 0.117369700 -s 22 -d -1 -p RTS -e 44 -c 2 -a 0 -i 0 -k MAC
+ -t 0.117379700 -s 22 -d -1 -p CTS -e 38 -c 2 -a 0 -i 0 -k MAC 
- -t 0.117379700 -s 22 -d -1 -p CTS -e 38 -c 2 -a 0 -i 0 -k MAC
h -t 0.117379700 -s 22 -d -1 -p CTS -e 38 -c 2 -a 0 -i 0 -k MAC
r -t 0.117684565 -s 0 -d -1 -p CTS -e 38 -c 2 -a 0 -i 0 -k MAC
+ -t 0.117694565 -s 0 -d -1 -p ARP -e 86 -c 2 -a 0 -i 0 -k MAC 
- -t 0.117694565 -s 0 -d -1 -p ARP -e 86 -c 2 -a 0 -i 0 -k MAC
h -t 0.117694565 -s 0 -d -1 -p ARP -e 86 -c 2 -a 0 -i 0 -k MAC
r -t 0.118383430 -s 22 -d -1 -p ARP -e 28 -c 2 -a 0 -i 0 -k MAC
+ -t 0.118393430 -s 22 -d -1 -p ACK -e 38 -c 2 -a 0 -i 0 -k MAC 
- -t 0.118393430 -s 22 -d -1 -p ACK -e 38 -c 2 -a 0 -i 0 -k MAC
h -t 0.118393430 -s 22 -d -1 -p ACK -e 38 -c 2 -a 0 -i 0 -k MAC
r -t 0.118698294 -s 0 -d -1 -p ACK -e 38 -c 2 -a 0 -i 0 -k MAC
+ -t 0.118927430 -s 22 -d -1 -p RTS -e 44 -c 2 -a 0 -i 0 -k MAC 
- -t 0.118927430 -s 22 -d -1 -p RTS -e 44 -c 2 -a 0 -i 0 -k MAC
h -t 0.118927430 -s 22 -d -1 -p RTS -e 44 -c 2 -a 0 -i 0 -k MAC
r -t 0.119280294 -s 0 -d -1 -p RTS -e 44 -c 2 -a 0 -i 0 -k MAC
+ -t 0.119290294 -s 0 -d -1 -p CTS -e 38 -c 2 -a 0 -i 0 -k MAC 
- -t 0.119290294 -s 0 -d -1 -p CTS -e 38 -c 2 -a 0 -i 0 -k MAC
h -t 0.119290294 -s 0 -d -1 -p CTS -e 38 -c 2 -a 0 -i 0 -k MAC
r -t 0.119595159 -s 22 -d -1 -p CTS -e 38 -c 2 -a 0 -i 0 -k MAC
+ -t 0.119605159 -s 22 -d 0 -p DSR -e 102 -c 2 -a 0 -i 6 -k MAC 
- -t 0.119605159 -s 22 -d 0 -p DSR -e 102 -c 2 -a 0 -i 6 -k MAC
h -t 0.119605159 -s 22 -d 0 -p DSR -e 102 -c 2 -a 0 -i 6 -k MAC
r -t 0.120422024 -s 0 -d 0 -p DSR -e 44 -c 2 -a 0 -i 6 -k MAC
+ -t 0.120432024 -s 0 -d -1 -p ACK -e 38 -c 2 -a 0 -i 0 -k MAC 
- -t 0.120432024 -s 0 -d -1 -p ACK -e 38 -c 2 -a 0 -i 0 -k MAC
h -t 0.120432024 -s 0 -d -1 -p ACK -e 38 -c 2 -a 0 -i 0 -k MAC
+ -t 0.120447024 -s 0 -d 22 -p cbr -e 1036 -c 2 -a 0 -i 4 -k RTR 
- -t 0.120447024 -s 0 -d 22 -p cbr -e 1036 -c 2 -a 0 -i 4 -k RTR
h -t 0.120447024 -s 0 -d 22 -p cbr -e 1036 -c 2 -a 0 -i 4 -k RTR
r -t 0.120736888 -s 22 -d -1 -p ACK -e 38 -c 2 -a 0 -i 0 -k MAC
+ -t 0.120986024 -s 0 -d -1 -p RTS -e 44 -c 2 -a 0 -i 0 -k MAC 
- -t 0.120986024 -s 0 -d -1 -p RTS -e 44 -c 2 -a 0 -i 0 -k MAC
h -t 0.120986024 -s 0 -d -1 -p RTS -e 44 -c 2 -a 0 -i 0 -k MAC
r -t 0.121338888 -s 22 -d -1 -p RTS -e 44 -c 2 -a 0 -i 0 -k MAC
+ -t 0.121348888 -s 22 -d -1 -p CTS -e 38 -c 2 -a 0 -i 0 -k MAC 
- -t 0.121348888 -s 22 -d -1 -p CTS -e 38 -c 2 -a 0 -i 0 -k MAC
h -t 0.121348888 -s 22 -d -1 -p CTS -e 38 -c 2 -a 0 -i 0 -k MAC
r -t 0.121653753 -s 0 -d -1 -p CTS -e 38 -c 2 -a 0 -i 0 -k MAC
+ -t 0.121663753 -s 0 -d 22 -p cbr -e 1094 -c 2 -a 0 -i 4 -k MAC 
- -t 0.121663753 -s 0 -d 22 -p cbr -e 1094 -c 2 -a 0 -i 4 -k MAC
h -t 0.121663753 -s 0 -d 22 -p cbr -e 1094 -c 2 -a 0 -i 4 -k MAC
r -t 0.130416617 -s 22 -d 22 -p cbr -e 1036 -c 2 -a 0 -i 4 -k MAC
+ -t 0.130426617 -s 22 -d -1 -p ACK -e 38 -c 2 -a 0 -i 0 -k MAC 
- -t 0.130426617 -s 22 -d -1 -p ACK -e 38 -c 2 -a 0 -i 0 -k MAC
h -t 0.130426617 -s 22 -d -1 -p ACK -e 38 -c 2 -a 0 -i 0 -k MAC
r -t 0.130441617 -s 22 -d 22 -p cbr -e 1000 -c 2 -a 0 -i 4 -k AGT
r -t 0.130731482 -s 0 -d -1 -p ACK -e 38 -c 2 -a 0 -i 0 -k MAC
+ -t 0.140000000 -s 0 -d -1 -p cbr -e 1000 -c 2 -a 0 -i 7 -k AGT 
- -t 0.140000000 -s 0 -d -1 -p cbr -e 1000 -c 2 -a 0 -i 7 -k AGT
h -t 0.140000000 -s 0 -d -1 -p cbr -e 1000 -c 2 -a 0 -i 7 -k AGT
+ -t 0.140000000 -s 0 -d 18 -p cbr -e 1036 -c 2 -a 0 -i 7 -k RTR 
- -t 0.140000000 -s 0 -d 18 -p cbr -e 1036 -c 2 -a 0 -i 7 -k RTR
h -t 0.140000000 -s 0 -d 18 -p cbr -e 1036 -c 2 -a 0 -i 7 -k RTR
+ -t 0.140475000 -s 0 -d -1 -p RTS -e 44 -c 2 -a 0 -i 0 -k MAC 
- -t 0.140475000 -s 0 -d -1 -p RTS -e 44 -c 2 -a 0 -i 0 -k MAC
h -t 0.140475000 -s 0 -d -1 -p RTS -e 44 -c 2 -a 0 -i 0 -k MAC
r -t 0.140827533 -s 18 -d -1 -p RTS -e 44 -c 2 -a 0 -i 0 -k MAC
+ -t 0.140837533 -s 18 -d -1 -p CTS -e 38 -c 2 -a 0 -i 0 -k MAC 
- -t 0.140837533 -s 18 -d -1 -p CTS -e 38 -c 2 -a 0 -i 0 -k MAC
h -t 0.140837533 -s 18 -d -1 -p CTS -e 38 -c 2 -a 0 -i 0 -k MAC
r -t 0.141142066 -s 0 -d -1 -p CTS -e 38 -c 2 -a 0 -i 0 -k MAC
+ -t 0.141152066 -s 0 -d 18 -p cbr -e 1094 -c 2 -a 0 -i 7 -k MAC 
- -t 0.141152066 -s 0 -d 18 -p cbr -e 1094 -c 2 -a 0 -i 7 -k MAC
h -t 0.141152066 -s 0 -d 18 -p cbr -e 1094 -c 2 -a 0 -i 7 -k MAC
r -t 0.149904599 -s 18 -d 18 -p cbr -e 1036 -c 2 -a 0 -i 7 -k MAC
+ -t 0.149914599 -s 18 -d -1 -p ACK -e 38 -c 2 -a 0 -i 0 -k MAC 
- -t 0.149914599 -s 18 -d -1 -p ACK -e 38 -c 2 -a 0 -i 0 -k MAC
h -t 0.149914599 -s 18 -d -1 -p ACK -e 38 -c 2 -a 0 -i 0 -k MAC
r -t 0.149929599 -s 18 -d 18 -p cbr -e 1000 -c 2 -a 0 -i 7 -k AGT
r -t 0.150219132 -s 0 -d -1 -p ACK -e 38 -c 2 -a 0 -i 0 -k MAC
+ -t 0.170000000 -s 0 -d -1 -p cbr -e 1000 -c 2 -a 0 -i 8 -k AGT 
- -t 0.170000000 -s 0 -d -1 -p cbr -e 1000 -c 2 -a 0 -i 8 -k AGT
h -t 0.170000000 -s 0 -d -1 -p cbr -e 1000 -c 2 -a 0 -i 8 -k AGT
+ -t 0.170000000 -s 0 -d 22 -p cbr -e 1036 -c 2 -a 0 -i 8 -k RTR 
- -t 0.170000000 -s 0 -d 22 -p cbr -e 1036 -c 2 -a 0 -i 8 -k RTR
h -t 0.170000000 -s 0 -d 22 -p cbr -e 1036 -c 2 -a 0 -i 8 -k RTR
+ -t 0.170075000 -s 0 -d -1 -p RTS -e 44 -c 2 -a 0 -i 0 -k MAC 
- -t 0.170075000 -s 0 -d -1 -p RTS -e 44 -c 2 -a 0 -i 0 -k MAC
h -t 0.170075000 -s 0 -d -1 -p RTS -e 44 -c 2 -a 0 -i 0 -k MAC
r -t 0.170427865 -s 22 -d -1 -p RTS -e 44 -c 2 -a 0 -i 0 -k MAC
+ -t 0.170437865 -s 22 -d -1 -p CTS -e 38 -c 2 -a 0 -i 0 -k MAC 
- -t 0.170437865 -s 22 -d -1 -p CTS -e 38 -c 2 -a 0 -i 0 -k MAC
h -t 0.170437865 -s 22 -d -1 -p CTS -e 38 -c 2 -a 0 -i 0 -k MAC
r -t 0.170742729 -s 0 -d -1 -p CTS -e 38 -c 2 -a 0 -i 0 -k MAC
+ -t 0.170752729 -s 0 -d 22 -p cbr -e 1094 -c 2 -a 0 -i 8 -k MAC 
- -t 0.170752729 -s 0 -d 22 -p cbr -e 1094 -c 2 -a 0 -i 8 -k MAC
h -t 0.170752729 -s 0 -d 22 -p cbr -e 1094 -c 2 -a 0 -i 8 -k MAC
r -t 0.179505594 -s 22 -d 22 -p cbr -e 1036 -c 2 -a 0 -i 8 -k MAC
+ -t 0.179515594 -s 22 -d -1 -p ACK -e 38 -c 2 -a 0 -i 0 -k MAC 
- -t 0.179515594 -s 22 -d -1 -p ACK -e 38 -c 2 -a 0 -i 0 -k MAC
h -t 0.179515594 -s 22 -d -1 -p ACK -e 38 -c 2 -a 0 -i 0 -k MAC
r -t 0.179530594 -s 22 -d 22 -p cbr -e 1000 -c 2 -a 0 -i 8 -k AGT
r -t 0.179820458 -s 0 -d -1 -p ACK -e 38 -c 2 -a 0 -i 0 -k MAC
n -t 0.200000 -s 4 -x 201.000000 -y 552.000000 -U 6.038681 -V -19.066576 -T 17.884700
n -t 0.200000 -s 20 -x 741.000000 -y 152.000000 -U -14.288674 -V 13.994063 -T 40.731560
+ -t 0.210000000 -s 0 -d -1 -p cbr -e 1000 -c 2 -a 0 -i 9 -k AGT 
- -t 0.210000000 -s 0 -d -1 -p cbr -e 1000 -c 2 -a 0 -i 9 -k AGT
h -t 0.210000000 -s 0 -d -1 -p cbr -e 1000 -c 2 -a 0 -i 9 -k AGT
+ -t 0.210000000 -s 0 -d 18 -p cbr -e 1020 -c 2 -a 0 -i 9 -k RTR 
- -t 0.210000000 -s 0 -d 18 -p cbr -e 1020 -c 2 -a 0 -i 9 -k RTR
h -t 0.210000000 -s 0 -d 18 -p cbr -e 1020 -c 2 -a 0 -i 9 -k RTR
+ -t 0.210275000 -s 0 -d -1 -p RTS -e 44 -c 2 -a 0 -i 0 -k MAC 
- -t 0.210275000 -s 0 -d -1 -p RTS -e 44 -c 2 -a 0 -i 0 -k MAC
h -t 0.210275000 -s 0 -d -1 -p RTS -e 44 -c 2 -a 0 -i 0 -k MAC
r -t 0.210627533 -s 18 -d -1 -p RTS -e 44 -c 2 -a 0 -i 0 -k MAC
+ -t 0.210637533 -s 18 -d -1 -p CTS -e 38 -c 2 -a 0 -i 0 -k MAC 
- -t 0.210637533 -s 18 -d -1 -p CTS -e 38 -c 2 -a 0 -i 0 -k MAC
h -t 0.210637533 -s 18 -d -1 -p CTS -e 38 -c 2 -a 0 -i 0 -k MAC
r -t 0.210942066 -s 0 -d -1 -p CTS -e 38 -c 2 -a 0 -i 0 -k MAC
+ -t 0.210952066 -s 0 -d 18 -p cbr -e 1078 -c 2 -a 0 -i 9 -k MAC 
- -t 0.210952066 -s 0 -d 18 -p cbr -e 1078 -c 2 -a 0 -i 9 -k MAC
h -t 0.210952066 -s 0 -d 18 -p cbr -e 1078 -c 2 -a 0 -i 9 -k MAC
r -t 0.219576599 -s 18 -d 18 -p cbr -e 1020 -c 2 -a 0 -i 9 -k MAC
+ -t 0.219586599 -s 18 -d -1 -p ACK -e 38 -c 2 -a 0 -i 0 -k MAC 
- -t 0.219586599 -s 18 -d -1 -p ACK -e 38 -c 2 -a 0 -i 0 -k MAC
h -t 0.219586599 -s 18 -d -1 -p ACK -e 38 -c 2 -a 0 -i 0 -k MAC
r -t 0.219601599 -s 18 -d 18 -p cbr -e 1000 -c 2 -a 0 -i 9 -k AGT
r -t 0.219891132 -s 0 -d -1 -p ACK -e 38 -c 2 -a 0 -i 0 -k MAC
+ -t 0.240000000 -s 0 -d -1 -p cbr -e 1000 -c 2 -a 0 -i 10 -k AGT 
- -t 0.240000000 -s 0 -d -1 -p cbr -e 1000 -c 2 -a 0 -i 10 -k AGT
h -t 0.240000000 -s 0 -d -1 -p cbr -e 1000 -c 2 -a 0 -i 10 -k AGT
+ -t 0.240000000 -s 0 -d 22 -p cbr -e 1036 -c 2 -a 0 -i 10 -k RTR 
- -t 0.240000000 -s 0 -d 22 -p cbr -e 1036 -c 2 -a 0 -i 10 -k RTR
h -t 0.240000000 -s 0 -d 22 -p cbr -e 1036 -c 2 -a 0 -i 10 -k RTR
+ -t 0.240295000 -s 0 -d -1 -p RTS -e 44 -c 2 -a 0 -i 0 -k MAC 
- -t 0.240295000 -s 0 -d -1 -p RTS -e 44 -c 2 -a 0 -i 0 -k MAC
h -t 0.240295000 -s 0 -d -1 -p RTS -e 44 -c 2 -a 0 -i 0 -k MAC
r -t 0.240647865 -s 22 -d -1 -p RTS -e 44 -c 2 -a 0 -i 0 -k MAC
+ -t 0.240657865 -s 22 -d -1 -p CTS -e 38 -c 2 -a 0 -i 0 -k MAC 
- -t 0.240657865 -s 22 -d -1 -p CTS -e 38 -c 2 -a 0 -i 0 -k MAC
h -t 0.240657865 -s 22 -d -1 -p CTS -e 38 -c 2 -a 0 -i 0 -k MAC
r -t 0.240962729 -s 0 -d -1 -p CTS -e 38 -c 2 -a 0 -i 0 -k MAC
+ -t 0.240972729 -s 0 -d 22 -p cbr -e 1094 -c 2 -a 0 -i 10 -k MAC 
- -t 0.240972729 -s 0 -d 22 -p cbr -e 1094 -c 2 -a 0 -i 10 -k MAC
h -t 0.240972729 -s 0 -d 22 -p cbr -e 1094 -c 2 -a 0 -i 10 -k MAC
r -t 0.249725594 -s 22 -d 22 -p cbr -e 1036 -c 2 -a 0 -i 10 -k MAC
+ -t 0.249735594 -s 22 -d -1 -p ACK -e 38 -c 2 -a 0 -i 0 -k MAC 
- -t 0.249735594 -s 22 -d -1 -p ACK -e 38 -c 2 -a 0 -i 0 -k MAC
h -t 0.249735594 -s 22 -d -1 -p ACK -e 38 -c 2 -a 0 -i 0 -k MAC
r -t 0.249750594 -s 22 -d 22 -p cbr -e 1000 -c 2 -a 0 -i 10 -k AGT
n -t 0.250000 -s 13 -x 569.000000 -y 167.000000 -U -0.983920 -V 24.980631 -T 18.294174
r -t 0.250040458 -s 0 -d -1 -p ACK -e 38 -c 2 -a 0 -i 0 -k MAC
+ -t 0.280000000 -s 0 -d -1 -p cbr -e 1000 -c 2 -a 0 -i 11 -k AGT 
- -t 0.280000000 -s 0 -d -1 -p cbr -e 1000 -c 2 -a 0 -i 11 -k AGT
h -t 0.280000000 -s 0 -d -1 -p cbr -e 1000 -c 2 -a 0 -i 11 -k AGT
+ -t 0.280000000 -s 0 -d 18 -p cbr -e 1020 -c 2 -a 0 -i 11 -k RTR 
- -t 0.280000000 -s 0 -d 18 -p cbr -e 1020 -c 2 -a 0 -i 11 -k RTR
h -t 0.280000000 -s 0 -d 18 -p cbr -e 1020 -c 2 -a 0 -i 11 -k RTR
+ -t 0.280595000 -s 0 -d -1 -p RTS -e 44 -c 2 -a 0 -i 0 -k MAC 
- -t 0.280595000 -s 0 -d -1 -p RTS -e 44 -c 2 -a 0 -i 0 -k MAC
h -t 0.280595000 -s 0 -d -1 -p RTS -e 44 -c 2 -a 0 -i 0 -k MAC
r -t 0.280947533 -s 18 -d -1 -p RTS -e 44 -c 2 -a 0 -i 0 -k MAC
+ -t 0.280957533 -s 18 -d -1 -p CTS -e 38 -c 2 -a 0 -i 0 -k MAC 
- -t 0.280957533 -s 18 -d -1 -p CTS -e 38 -c 2 -a 0 -i 0 -k MAC
h -t 0.280957533 -s 18 -d -1 -p CTS -e 38 -c 2 -a 0 -i 0 -k MAC
r -t 0.281262066 -s 0 -d -1 -p CTS -e 38 -c 2 -a 0 -i 0 -k MAC
+ -t 0.281272066 -s 0 -d 18 -p cbr -e 1078 -c 2 -a 0 -i 11 -k MAC 
- -t 0.281272066 -s 0 -d 18 -p cbr -e 1078 -c 2 -a 0 -i 11 -k MAC
h -t 0.281272066 -s 0 -d 18 -p cbr -e 1078 -c 2 -a 0 -i 11 -k MAC
r -t 0.289896599 -s 18 -d 18 -p cbr -e 1020 -c 2 -a 0 -i 11 -k MAC
+ -t 0.289906599 -s 18 -d -1 -p ACK -e 38 -c 2 -a 0 -i 0 -k MAC 
- -t 0.289906599 -s 18 -d -1 -p ACK -e 38 -c 2 -a 0 -i 0 -k MAC
h -t 0.289906599 -s 18 -d -1 -p ACK -e 38 -c 2 -a 0 -i 0 -k MAC
r -t 0.289921599 -s 18 -d 18 -p cbr -e 1000 -c 2 -a 0 -i 11 -k AGT
r -t 0.290211132 -s 0 -d -1 -p ACK -e 38 -c 2 -a 0 -i 0 -k MAC
+ -t 0.310000000 -s 0 -d -1 -p cbr -e 1000 -c 2 -a 0 -i 12 -k AGT 
- -t 0.310000000 -s 0 -d -1 -p cbr -e 1000 -c 2 -a 0 -i 12 -k AGT
h -t 0.310000000 -s 0 -d -1 -p cbr -e 1000 -c 2 -a 0 -i 12 -k AGT
+ -t 0.310000000 -s 0 -d 22 -p cbr -e 1020 -c 2 -a 0 -i 12 -k RTR 
- -t 0.310000000 -s 0 -d 22 -p cbr -e 1020 -c 2 -a 0 -i 12 -k RTR
h -t 0.310000000 -s 0 -d 22 -p cbr -e 1020 -c 2 -a 0 -i 12 -k RTR
+ -t 0.310675000 -s 0 -d -1 -p RTS -e 44 -c 2 -a 0 -i 0 -k MAC 
- -t 0.310675000 -s 0 -d -1 -p RTS -e 44 -c 2 -a 0 -i 0 -k MAC
h -t 0.310675000 -s 0 -d -1 -p RTS -e 44 -c 2 -a 0 -i 0 -k MAC
r -t 0.311027865 -s 22 -d -1 -p RTS -e 44 -c 2 -a 0 -i 0 -k MAC
+ -t 0.311037865 -s 22 -d -1 -p CTS -e 38 -c 2 -a 0 -i 0 -k MAC 
- -t 0.311037865 -s 22 -d -1 -p CTS -e 38 -c 2 -a 0 -i 0 -k MAC
h -t 0.311037865 -s 22 -d -1 -p CTS -e 38 -c 2 -a 0 -i 0 -k MAC
r -t 0.311342729 -s 0 -d -1 -p CTS -e 38 -c 2 -a 0 -i 0 -k MAC
+ -t 0.311352729 -s 0 -d 22 -p cbr -e 1078 -c 2 -a 0 -i 12 -k MAC 
- -t 0.311352729 -s 0 -d 22 -p cbr -e 1078 -c 2 -a 0 -i 12 -k MAC
h -t 0.311352729 -s 0 -d 22 -p cbr -e 1078 -c 2 -a 0 -i 12 -k MAC
r -t 0.319977594 -s 22 -d 22 -p cbr -e 1020 -c 2 -a 0 -i 12 -k MAC
+ -t 0.319987594 -s 22 -d -1 -p ACK -e 38 -c 2 -a 0 -i 0 -k MAC 
- -t 0.319987594 -s 22 -d -1 -p ACK -e 38 -c 2 -a 0 -i 0 -k MAC
h -t 0.319987594 -s 22 -d -1 -p ACK -e 38 -c 2 -a 0 -i 0 -k MAC
r -t 0.320002594 -s 22 -d 22 -p cbr -e 1000 -c 2 -a 0 -i 12 -k AGT
r -t 0.320292458 -s 0 -d -1 -p ACK -e 38 -c 2 -a 0 -i 0 -k MAC
+ -t 0.350000000 -s 0 -d -1 -p cbr -e 1000 -c 2 -a 0 -i 13 -k AGT 
- -t 0.350000000 -s 0 -d -1 -p cbr -e 1000 -c 2 -a 0 -i 13 -k AGT
h -t 0.350000000 -s 0 -d -1 -p cbr -e 1000 -c 2 -a 0 -i 13 -k AGT
+ -t 0.350000000 -s 0 -d 18 -p cbr -e 1020 -c 2 -a 0 -i 13 -k RTR 
- -t 0.350000000 -s 0 -d 18 -p cbr -e 1020 -c 2 -a 0 -i 13 -k RTR
h -t 0.350000000 -s 0 -d 18 -p cbr -e 1020 -c 2 -a 0 -i 13 -k RTR
+ -t 0.350415000 -s 0 -d -1 -p RTS -e 44 -c 2 -a 0 -i 0 -k MAC 
- -t 0.350415000 -s 0 -d -1 -p RTS -e 44 -c 2 -a 0 -i 0 -k MAC
h -t 0.350415000 -s 0 -d -1 -p RTS -e 44 -c 2 -a 0 -i 0 -k MAC
r -t 0.350767533 -s 18 -d -1 -p RTS -e 44 -c 2 -a 0 -i 0 -k MAC
+ -t 0.350777533 -s 18 -d -1 -p CTS -e 38 -c 2 -a 0 -i 0 -k MAC 
- -t 0.350777533 -s 18 -d -1 -p CTS -e 38 -c 2 -a 0 -i 0 -k MAC
h -t 0.350777533 -s 18 -d -1 -p CTS -e 38 -c 2 -a 0 -i 0 -k MAC
r -t 0.351082066 -s 0 -d -1 -p CTS -e 38 -c 2 -a 0 -i 0 -k MAC
+ -t 0.351092066 -s 0 -d 18 -p cbr -e 1078 -c 2 -a 0 -i 13 -k MAC 
- -t 0.351092066 -s 0 -d 18 -p cbr -e 1078 -c 2 -a 0 -i 13 -k MAC
h -t 0.351092066 -s 0 -d 18 -p cbr -e 1078 -c 2 -a 0 -i 13 -k MAC
r -t 0.359716599 -s 18 -d 18 -p cbr -e 1020 -c 2 -a 0 -i 13 -k MAC
+ -t 0.359726599 -s 18 -d -1 -p ACK -e 38 -c 2 -a 0 -i 0 -k MAC 
- -t 0.359726599 -s 18 -d -1 -p ACK -e 38 -c 2 -a 0 -i 0 -k MAC
h -t 0.359726599 -s 18 -d -1 -p ACK -e 38 -c 2 -a 0 -i 0 -k MAC
r -t 0.359741599 -s 18 -d 18 -p cbr -e 1000 -c 2 -a 0 -i 13 -k AGT
r -t 0.360031132 -s 0 -d -1 -p ACK -e 38 -c 2 -a 0 -i 0 -k MAC
+ -t 0.380000000 -s 0 -d -1 -p cbr -e 1000 -c 2 -a 0 -i 14 -k AGT 
- -t 0.380000000 -s 0 -d -1 -p cbr -e 1000 -c 2 -a 0 -i 14 -k AGT
h -t 0.380000000 -s 0 -d -1 -p cbr -e 1000 -c 2 -a 0 -i 14 -k AGT
+ -t 0.380000000 -s 0 -d 22 -p cbr -e 1020 -c 2 -a 0 -i 14 -k RTR 
- -t 0.380000000 -s 0 -d 22 -p cbr -e 1020 -c 2 -a 0 -i 14 -k RTR
h -t 0.380000000 -s 0 -d 22 -p cbr -e 1020 -c 2 -a 0 -i 14 -k RTR
+ -t 0.380095000 -s 0 -d -1 -p RTS -e 44 -c 2 -a 0 -i 0 -k MAC 
- -t 0.380095000 -s 0 -d -1 -p RTS -e 44 -c 2 -a 0 -i 0 -k MAC
h -t 0.380095000 -s 0 -d -1 -p RTS -e 44 -c 2 -a 0 -i 0 -k MAC
r -t 0.380447865 -s 22 -d -1 -p RTS -e 44 -c 2 -a 0 -i 0 -k MAC
+ -t 0.380457865 -s 22 -d -1 -p CTS -e 38 -c 2 -a 0 -i 0 -k MAC 
- -t 0.380457865 -s 22 -d -1 -p CTS -e 38 -c 2 -a 0 -i 0 -k MAC
h -t 0.380457865 -s 22 -d -1 -p CTS -e 38 -c 2 -a 0 -i 0 -k MAC
r -t 0.380762729 -s 0 -d -1 -p CTS -e 38 -c 2 -a 0 -i 0 -k MAC
+ -t 0.380772729 -s 0 -d 22 -p cbr -e 1078 -c 2 -a 0 -i 14 -k MAC 
- -t 0.380772729 -s 0 -d 22 -p cbr -e 1078 -c 2 -a 0 -i 14 -k MAC
h -t 0.380772729 -s 0 -d 22 -p cbr -e 1078 -c 2 -a 0 -i 14 -k MAC
r -t 0.389397594 -s 22 -d 22 -p cbr -e 1020 -c 2 -a 0 -i 14 -k MAC
+ -t 0.389407594 -s 22 -d -1 -p ACK -e 38 -c 2 -a 0 -i 0 -k MAC 
- -t 0.389407594 -s 22 -d -1 -p ACK -e 38 -c 2 -a 0 -i 0 -k MAC
h -t 0.389407594 -s 22 -d -1 -p ACK -e 38 -c 2 -a 0 -i 0 -k MAC
r -t 0.389422594 -s 22 -d 22 -p cbr -e 1000 -c 2 -a 0 -i 14 -k AGT
r -t 0.389712458 -s 0 -d -1 -p ACK -e 38 -c 2 -a 0 -i 0 -k MAC
+ -t 0.420000000 -s 0 -d -1 -p cbr -e 1000 -c 2 -a 0 -i 15 -k AGT 
- -t 0.420000000 -s 0 -d -1 -p cbr -e 1000 -c 2 -a 0 -i 15 -k AGT
h -t 0.420000000 -s 0 -d -1 -p cbr -e 1000 -c 2 -a 0 -i 15 -k AGT
+ -t 0.420000000 -s 0 -d 18 -p cbr -e 1020 -c 2 -a 0 -i 15 -k RTR 
- -t 0.420000000 -s 0 -d 18 -p cbr -e 1020 -c 2 -a 0 -i 15 -k RTR