s 0.000000000 _0_ AGT  --- 0 cbr 1000 [0 0 0 0] ------- [0:0 18:0 32 0] [0] 0 0
r 0.000000000 _0_ RTR  --- 0 cbr 1000 [0 0 0 0] ------- [0:0 18:0 32 0] [0] 0 0
v 0 eval {set sim_annotation {MOBILE NODE MOVEMENTS}}
s 0.000000000 _0_ RTR  --- 0 AODV 48 [0 0 0 0] ------- [0:255 -1:255 30 0] [0x2 1 1 [18 0] [0 4]] (REQUEST)
s 0.000095000 _0_ MAC  --- 0 AODV 106 [0 ffffffff 0 800] ------- [0:255 -1:255 30 0] [0x2 1 1 [18 0] [0 4]] (REQUEST)
r 0.000943520 _12_ MAC  --- 0 AODV 48 [0 ffffffff 0 800] ------- [0:255 -1:255 30 0] [0x2 1 1 [18 0] [0 4]] (REQUEST)
r 0.000943527 _15_ MAC  --- 0 AODV 48 [0 ffffffff 0 800] ------- [0:255 -1:255 30 0] [0x2 1 1 [18 0] [0 4]] (REQUEST)
r 0.000943533 _18_ MAC  --- 0 AODV 48 [0 ffffffff 0 800] ------- [0:255 -1:255 30 0] [0x2 1 1 [18 0] [0 4]] (REQUEST)
r 0.000943555 _14_ MAC  --- 0 AODV 48 [0 ffffffff 0 800] ------- [0:255 -1:255 30 0] [0x2 1 1 [18 0] [0 4]] (REQUEST)
r 0.000943717 _17_ MAC  --- 0 AODV 48 [0 ffffffff 0 800] ------- [0:255 -1:255 30 0] [0x2 1 1 [18 0] [0 4]] (REQUEST)
r 0.000943737 _9_ MAC  --- 0 AODV 48 [0 ffffffff 0 800] ------- [0:255 -1:255 30 0] [0x2 1 1 [18 0] [0 4]] (REQUEST)
r 0.000943762 _19_ MAC  --- 0 AODV 48 [0 ffffffff 0 800] ------- [0:255 -1:255 30 0] [0x2 1 1 [18 0] [0 4]] (REQUEST)
r 0.000943786 _8_ MAC  --- 0 AODV 48 [0 ffffffff 0 800] ------- [0:255 -1:255 30 0] [0x2 1 1 [18 0] [0 4]] (REQUEST)
r 0.000943797 _7_ MAC  --- 0 AODV 48 [0 ffffffff 0 800] ------- [0:255 -1:255 30 0] [0x2 1 1 [18 0] [0 4]] (REQUEST)
r 0.000943865 _22_ MAC  --- 0 AODV 48 [0 ffffffff 0 800] ------- [0:255 -1:255 30 0] [0x2 1 1 [18 0] [0 4]] (REQUEST)
r 0.000943927 _16_ MAC  --- 0 AODV 48 [0 ffffffff 0 800] ------- [0:255 -1:255 30 0] [0x2 1 1 [18 0] [0 4]] (REQUEST)
r 0.000944047 _4_ MAC  --- 0 AODV 48 [0 ffffffff 0 800] ------- [0:255 -1:255 30 0] [0x2 1 1 [18 0] [0 4]] (REQUEST)
r 0.000944112 _10_ MAC  --- 0 AODV 48 [0 ffffffff 0 800] ------- [0:255 -1:255 30 0] [0x2 1 1 [18 0] [0 4]] (REQUEST)
r 0.000944128 _11_ MAC  --- 0 AODV 48 [0 ffffffff 0 800] ------- [0:255 -1:255 30 0] [0x2 1 1 [18 0] [0 4]] (REQUEST)
r 0.000944182 _13_ MAC  --- 0 AODV 48 [0 ffffffff 0 800] ------- [0:255 -1:255 30 0] [0x2 1 1 [18 0] [0 4]] (REQUEST)
r 0.000944207 _6_ MAC  --- 0 AODV 48 [0 ffffffff 0 800] ------- [0:255 -1:255 30 0] [0x2 1 1 [18 0] [0 4]] (REQUEST)
r 0.000944278 _5_ MAC  --- 0 AODV 48 [0 ffffffff 0 800] ------- [0:255 -1:255 30 0] [0x2 1 1 [18 0] [0 4]] (REQUEST)
r 0.000944330 _3_ MAC  --- 0 AODV 48 [0 ffffffff 0 800] ------- [0:255 -1:255 30 0] [0x2 1 1 [18 0] [0 4]] (REQUEST)
r 0.000944435 _20_ MAC  --- 0 AODV 48 [0 ffffffff 0 800] ------- [0:255 -1:255 30 0] [0x2 1 1 [18 0] [0 4]] (REQUEST)
r 0.000944491 _21_ MAC  --- 0 AODV 48 [0 ffffffff 0 800] ------- [0:255 -1:255 30 0] [0x2 1 1 [18 0] [0 4]] (REQUEST)
r 0.000944591 _2_ MAC  --- 0 AODV 48 [0 ffffffff 0 800] ------- [0:255 -1:255 30 0] [0x2 1 1 [18 0] [0 4]] (REQUEST)
r 0.000946110 _1_ MAC  --- 0 AODV 48 [0 ffffffff 0 800] ------- [0:255 -1:255 30 0] [0x2 1 1 [18 0] [0 4]] (REQUEST)
r 0.000968520 _12_ RTR  --- 0 AODV 48 [0 ffffffff 0 800] ------- [0:255 -1:255 30 0] [0x2 1 1 [18 0] [0 4]] (REQUEST)
r 0.000968527 _15_ RTR  --- 0 AODV 48 [0 ffffffff 0 800] ------- [0:255 -1:255 30 0] [0x2 1 1 [18 0] [0 4]] (REQUEST)
r 0.000968533 _18_ RTR  --- 0 AODV 48 [0 ffffffff 0 800] ------- [0:255 -1:255 30 0] [0x2 1 1 [18 0] [0 4]] (REQUEST)
s 0.000968533 _18_ RTR  --- 0 AODV 44 [0 0 0 0] ------- [18:255 0:255 30 0] [0x4 1 [18 4] 10.000000] (REPLY)
r 0.000968555 _14_ RTR  --- 0 AODV 48 [0 ffffffff 0 800] ------- [0:255 -1:255 30 0] [0x2 1 1 [18 0] [0 4]] (REQUEST)
r 0.000968717 _17_ RTR  --- 0 AODV 48 [0 ffffffff 0 800] ------- [0:255 -1:255 30 0] [0x2 1 1 [18 0] [0 4]] (REQUEST)
r 0.000968737 _9_ RTR  --- 0 AODV 48 [0 ffffffff 0 800] ------- [0:255 -1:255 30 0] [0x2 1 1 [18 0] [0 4]] (REQUEST)
r 0.000968762 _19_ RTR  --- 0 AODV 48 [0 ffffffff 0 800] ------- [0:255 -1:255 30 0] [0x2 1 1 [18 0] [0 4]] (REQUEST)
r 0.000968786 _8_ RTR  --- 0 AODV 48 [0 ffffffff 0 800] ------- [0:255 -1:255 30 0] [0x2 1 1 [18 0] [0 4]] (REQUEST)
r 0.000968797 _7_ RTR  --- 0 AODV 48 [0 ffffffff 0 800] ------- [0:255 -1:255 30 0] [0x2 1 1 [18 0] [0 4]] (REQUEST)
r 0.000968865 _22_ RTR  --- 0 AODV 48 [0 ffffffff 0 800] ------- [0:255 -1:255 30 0] [0x2 1 1 [18 0] [0 4]] (REQUEST)
r 0.000968927 _16_ RTR  --- 0 AODV 48 [0 ffffffff 0 800] ------- [0:255 -1:255 30 0] [0x2 1 1 [18 0] [0 4]] (REQUEST)
r 0.000969047 _4_ RTR  --- 0 AODV 48 [0 ffffffff 0 800] ------- [0:255 -1:255 30 0] [0x2 1 1 [18 0] [0 4]] (REQUEST)
r 0.000969112 _10_ RTR  --- 0 AODV 48 [0 ffffffff 0 800] ------- [0:255 -1:255 30 0] [0x2 1 1 [18 0] [0 4]] (REQUEST)
r 0.000969128 _11_ RTR  --- 0 AODV 48 [0 ffffffff 0 800] ------- [0:255 -1:255 30 0] [0x2 1 1 [18 0] [0 4]] (REQUEST)
r 0.000969182 _13_ RTR  --- 0 AODV 48 [0 ffffffff 0 800] ------- [0:255 -1:255 30 0] [0x2 1 1 [18 0] [0 4]] (REQUEST)
r 0.000969207 _6_ RTR  --- 0 AODV 48 [0 ffffffff 0 800] ------- [0:255 -1:255 30 0] [0x2 1 1 [18 0] [0 4]] (REQUEST)
r 0.000969278 _5_ RTR  --- 0 AODV 48 [0 ffffffff 0 800] ------- [0:255 -1:255 30 0] [0x2 1 1 [18 0] [0 4]] (REQUEST)
r 0.000969330 _3_ RTR  --- 0 AODV 48 [0 ffffffff 0 800] ------- [0:255 -1:255 30 0] [0x2 1 1 [18 0] [0 4]] (REQUEST)
r 0.000969435 _20_ RTR  --- 0 AODV 48 [0 ffffffff 0 800] ------- [0:255 -1:255 30 0] [0x2 1 1 [18 0] [0 4]] (REQUEST)
r 0.000969491 _21_ RTR  --- 0 AODV 48 [0 ffffffff 0 800] ------- [0:255 -1:255 30 0] [0x2 1 1 [18 0] [0 4]] (REQUEST)
r 0.000969591 _2_ RTR  --- 0 AODV 48 [0 ffffffff 0 800] ------- [0:255 -1:255 30 0] [0x2 1 1 [18 0] [0 4]] (REQUEST)
r 0.000971110 _1_ RTR  --- 0 AODV 48 [0 ffffffff 0 800] ------- [0:255 -1:255 30 0] [0x2 1 1 [18 0] [0 4]] (REQUEST)
s 0.001297869 _12_ RTR  --- 0 AODV 48 [0 ffffffff 0 800] ------- [12:255 -1:255 29 0] [0x2 2 1 [18 0] [0 4]] (REQUEST)
s 0.001392869 _12_ MAC  --- 0 AODV 106 [0 ffffffff c 800] ------- [12:255 -1:255 29 0] [0x2 2 1 [18 0] [0 4]] (REQUEST)
s 0.001529078 _9_ RTR  --- 0 AODV 48 [0 ffffffff 0 800] ------- [9:255 -1:255 29 0] [0x2 2 1 [18 0] [0 4]] (REQUEST)
s 0.001821549 _15_ RTR  --- 0 AODV 48 [0 ffffffff 0 800] ------- [15:255 -1:255 29 0] [0x2 2 1 [18 0] [0 4]] (REQUEST)
r 0.002241361 _19_ MAC  --- 0 AODV 48 [0 ffffffff c 800] ------- [12:255 -1:255 29 0] [0x2 2 1 [18 0] [0 4]] (REQUEST)
r 0.002241389 _0_ MAC  --- 0 AODV 48 [0 ffffffff c 800] ------- [12:255 -1:255 29 0] [0x2 2 1 [18 0] [0 4]] (REQUEST)
r 0.002241396 _8_ MAC  --- 0 AODV 48 [0 ffffffff c 800] ------- [12:255 -1:255 29 0] [0x2 2 1 [18 0] [0 4]] (REQUEST)
r 0.002241530 _11_ MAC  --- 0 AODV 48 [0 ffffffff c 800] ------- [12:255 -1:255 29 0] [0x2 2 1 [18 0] [0 4]] (REQUEST)
r 0.002241537 _13_ MAC  --- 0 AODV 48 [0 ffffffff c 800] ------- [12:255 -1:255 29 0] [0x2 2 1 [18 0] [0 4]] (REQUEST)
r 0.002241640 _7_ MAC  --- 0 AODV 48 [0 ffffffff c 800] ------- [12:255 -1:255 29 0] [0x2 2 1 [18 0] [0 4]] (REQUEST)
r 0.002241707 _14_ MAC  --- 0 AODV 48 [0 ffffffff c 800] ------- [12:255 -1:255 29 0] [0x2 2 1 [18 0] [0 4]] (REQUEST)
r 0.002241719 _22_ MAC  --- 0 AODV 48 [0 ffffffff c 800] ------- [12:255 -1:255 29 0] [0x2 2 1 [18 0] [0 4]] (REQUEST)
r 0.002241827 _18_ MAC  --- 0 AODV 48 [0 ffffffff c 800] ------- [12:255 -1:255 29 0] [0x2 2 1 [18 0] [0 4]] (REQUEST)
r 0.002241860 _6_ MAC  --- 0 AODV 48 [0 ffffffff c 800] ------- [12:255 -1:255 29 0] [0x2 2 1 [18 0] [0 4]] (REQUEST)
r 0.002241885 _20_ MAC  --- 0 AODV 48 [0 ffffffff c 800] ------- [12:255 -1:255 29 0] [0x2 2 1 [18 0] [0 4]] (REQUEST)
r 0.002241907 _15_ MAC  --- 0 AODV 48 [0 ffffffff c 800] ------- [12:255 -1:255 29 0] [0x2 2 1 [18 0] [0 4]] (REQUEST)
r 0.002242004 _9_ MAC  --- 0 AODV 48 [0 ffffffff c 800] ------- [12:255 -1:255 29 0] [0x2 2 1 [18 0] [0 4]] (REQUEST)
r 0.002242071 _17_ MAC  --- 0 AODV 48 [0 ffffffff c 800] ------- [12:255 -1:255 29 0] [0x2 2 1 [18 0] [0 4]] (REQUEST)
r 0.002242106 _4_ MAC  --- 0 AODV 48 [0 ffffffff c 800] ------- [12:255 -1:255 29 0] [0x2 2 1 [18 0] [0 4]] (REQUEST)
r 0.002242117 _5_ MAC  --- 0 AODV 48 [0 ffffffff c 800] ------- [12:255 -1:255 29 0] [0x2 2 1 [18 0] [0 4]] (REQUEST)
r 0.002242121 _21_ MAC  --- 0 AODV 48 [0 ffffffff c 800] ------- [12:255 -1:255 29 0] [0x2 2 1 [18 0] [0 4]] (REQUEST)
r 0.002242316 _16_ MAC  --- 0 AODV 48 [0 ffffffff c 800] ------- [12:255 -1:255 29 0] [0x2 2 1 [18 0] [0 4]] (REQUEST)
r 0.002242430 _10_ MAC  --- 0 AODV 48 [0 ffffffff c 800] ------- [12:255 -1:255 29 0] [0x2 2 1 [18 0] [0 4]] (REQUEST)
r 0.002242483 _3_ MAC  --- 0 AODV 48 [0 ffffffff c 800] ------- [12:255 -1:255 29 0] [0x2 2 1 [18 0] [0 4]] (REQUEST)
r 0.002242574 _2_ MAC  --- 0 AODV 48 [0 ffffffff c 800] ------- [12:255 -1:255 29 0] [0x2 2 1 [18 0] [0 4]] (REQUEST)
r 0.002243979 _1_ MAC  --- 0 AODV 48 [0 ffffffff c 800] ------- [12:255 -1:255 29 0] [0x2 2 1 [18 0] [0 4]] (REQUEST)
r 0.002266361 _19_ RTR  --- 0 AODV 48 [0 ffffffff c 800] ------- [12:255 -1:255 29 0] [0x2 2 1 [18 0] [0 4]] (REQUEST)
r 0.002266389 _0_ RTR  --- 0 AODV 48 [0 ffffffff c 800] ------- [12:255 -1:255 29 0] [0x2 2 1 [18 0] [0 4]] (REQUEST)
r 0.002266396 _8_ RTR  --- 0 AODV 48 [0 ffffffff c 800] ------- [12:255 -1:255 29 0] [0x2 2 1 [18 0] [0 4]] (REQUEST)
r 0.002266530 _11_ RTR  --- 0 AODV 48 [0 ffffffff c 800] ------- [12:255 -1:255 29 0] [0x2 2 1 [18 0] [0 4]] (REQUEST)
r 0.002266537 _13_ RTR  --- 0 AODV 48 [0 ffffffff c 800] ------- [12:255 -1:255 29 0] [0x2 2 1 [18 0] [0 4]] (REQUEST)
r 0.002266640 _7_ RTR  --- 0 AODV 48 [0 ffffffff c 800] ------- [12:255 -1:255 29 0] [0x2 2 1 [18 0] [0 4]] (REQUEST)
r 0.002266707 _14_ RTR  --- 0 AODV 48 [0 ffffffff c 800] ------- [12:255 -1:255 29 0] [0x2 2 1 [18 0] [0 4]] (REQUEST)
r 0.002266719 _22_ RTR  --- 0 AODV 48 [0 ffffffff c 800] ------- [12:255 -1:255 29 0] [0x2 2 1 [18 0] [0 4]] (REQUEST)
r 0.002266827 _18_ RTR  --- 0 AODV 48 [0 ffffffff c 800] ------- [12:255 -1:255 29 0] [0x2 2 1 [18 0] [0 4]] (REQUEST)
r 0.002266860 _6_ RTR  --- 0 AODV 48 [0 ffffffff c 800] ------- [12:255 -1:255 29 0] [0x2 2 1 [18 0] [0 4]] (REQUEST)
r 0.002266885 _20_ RTR  --- 0 AODV 48 [0 ffffffff c 800] ------- [12:255 -1:255 29 0] [0x2 2 1 [18 0] [0 4]] (REQUEST)
r 0.002266907 _15_ RTR  --- 0 AODV 48 [0 ffffffff c 800] ------- [12:255 -1:255 29 0] [0x2 2 1 [18 0] [0 4]] (REQUEST)
r 0.002267004 _9_ RTR  --- 0 AODV 48 [0 ffffffff c 800] ------- [12:255 -1:255 29 0] [0x2 2 1 [18 0] [0 4]] (REQUEST)
r 0.002267071 _17_ RTR  --- 0 AODV 48 [0 ffffffff c 800] ------- [12:255 -1:255 29 0] [0x2 2 1 [18 0] [0 4]] (REQUEST)
r 0.002267106 _4_ RTR  --- 0 AODV 48 [0 ffffffff c 800] ------- [12:255 -1:255 29 0] [0x2 2 1 [18 0] [0 4]] (REQUEST)
r 0.002267117 _5_ RTR  --- 0 AODV 48 [0 ffffffff c 800] ------- [12:255 -1:255 29 0] [0x2 2 1 [18 0] [0 4]] (REQUEST)
r 0.002267121 _21_ RTR  --- 0 AODV 48 [0 ffffffff c 800] ------- [12:255 -1:255 29 0] [0x2 2 1 [18 0] [0 4]] (REQUEST)
r 0.002267316 _16_ RTR  --- 0 AODV 48 [0 ffffffff c 800] ------- [12:255 -1:255 29 0] [0x2 2 1 [18 0] [0 4]] (REQUEST)
r 0.002267430 _10_ RTR  --- 0 AODV 48 [0 ffffffff c 800] ------- [12:255 -1:255 29 0] [0x2 2 1 [18 0] [0 4]] (REQUEST)
r 0.002267483 _3_ RTR  --- 0 AODV 48 [0 ffffffff c 800] ------- [12:255 -1:255 29 0] [0x2 2 1 [18 0] [0 4]] (REQUEST)
r 0.002267574 _2_ RTR  --- 0 AODV 48 [0 ffffffff c 800] ------- [12:255 -1:255 29 0] [0x2 2 1 [18 0] [0 4]] (REQUEST)
r 0.002268979 _1_ RTR  --- 0 AODV 48 [0 ffffffff c 800] ------- [12:255 -1:255 29 0] [0x2 2 1 [18 0] [0 4]] (REQUEST)
s 0.002411827 _18_ MAC  --- 0 ARP 86 [0 ffffffff 12 806] ------- [REQUEST 18/18 0/0]
s 0.002412004 _9_ MAC  --- 0 AODV 106 [0 ffffffff 9 800] ------- [9:255 -1:255 29 0] [0x2 2 1 [18 0] [0 4]] (REQUEST)
D 0.002412450 _15_ MAC  COL 0 ARP 86 [0 ffffffff 12 806] ------- [REQUEST 18/18 0/0]
D 0.002412716 _16_ MAC  COL 0 ARP 86 [0 ffffffff 12 806] ------- [REQUEST 18/18 0/0]
D 0.002412742 _0_ MAC  COL 0 ARP 86 [0 ffffffff 12 806] ------- [REQUEST 18/18 0/0]
D 0.002413139 _7_ MAC  COL 0 ARP 86 [0 ffffffff 12 806] ------- [REQUEST 18/18 0/0]
D 0.002413140 _12_ MAC  COL 0 ARP 86 [0 ffffffff 12 806] ------- [REQUEST 18/18 0/0]
D 0.002413143 _8_ MAC  COL 0 ARP 86 [0 ffffffff 12 806] ------- [REQUEST 18/18 0/0]
D 0.002413496 _19_ MAC  COL 0 ARP 86 [0 ffffffff 12 806] ------- [REQUEST 18/18 0/0]
D 0.002413537 _11_ MAC  COL 0 ARP 86 [0 ffffffff 12 806] ------- [REQUEST 18/18 0/0]
D 0.002413566 _6_ MAC  COL 0 ARP 86 [0 ffffffff 12 806] ------- [REQUEST 18/18 0/0]
D 0.002413600 _5_ MAC  COL 0 ARP 86 [0 ffffffff 12 806] ------- [REQUEST 18/18 0/0]
D 0.002413786 _13_ MAC  COL 0 ARP 86 [0 ffffffff 12 806] ------- [REQUEST 18/18 0/0]
D 0.002414141 _20_ MAC  COL 0 ARP 86 [0 ffffffff 12 806] ------- [REQUEST 18/18 0/0]
D 0.002414233 _21_ MAC  COL 0 ARP 86 [0 ffffffff 12 806] ------- [REQUEST 18/18 0/0]
D 0.002415752 _1_ MAC  COL 0 ARP 86 [0 ffffffff 12 806] ------- [REQUEST 18/18 0/0]
s 0.002559588 _8_ RTR  --- 0 AODV 48 [0 ffffffff 0 800] ------- [8:255 -1:255 29 0] [0x2 2 1 [18 0] [0 4]] (REQUEST)
s 0.003028025 _6_ RTR  --- 0 AODV 48 [0 ffffffff 0 800] ------- [6:255 -1:255 29 0] [0x2 2 1 [18 0] [0 4]] (REQUEST)
r 0.003100121 _17_ MAC  --- 0 ARP 28 [0 ffffffff 12 806] ------- [REQUEST 18/18 0/0]
r 0.003100582 _22_ MAC  --- 0 ARP 28 [0 ffffffff 12 806] ------- [REQUEST 18/18 0/0]
s 0.003189809 _22_ RTR  --- 0 AODV 48 [0 ffffffff 0 800] ------- [22:255 -1:255 29 0] [0x2 2 1 [18 0] [0 4]] (REQUEST)
r 0.003260345 _14_ MAC  --- 0 AODV 48 [0 ffffffff 9 800] ------- [9:255 -1:255 29 0] [0x2 2 1 [18 0] [0 4]] (REQUEST)
r 0.003260449 _10_ MAC  --- 0 AODV 48 [0 ffffffff 9 800] ------- [9:255 -1:255 29 0] [0x2 2 1 [18 0] [0 4]] (REQUEST)
D 0.003260450 _15_ MAC  COL 0 AODV 106 [0 ffffffff 9 800] ------- [9:255 -1:255 29 0] [0x2 2 1 [18 0] [0 4]] (REQUEST)
r 0.003260549 _4_ MAC  --- 0 AODV 48 [0 ffffffff 9 800] ------- [9:255 -1:255 29 0] [0x2 2 1 [18 0] [0 4]] (REQUEST)
r 0.003260644 _3_ MAC  --- 0 AODV 48 [0 ffffffff 9 800] ------- [9:255 -1:255 29 0] [0x2 2 1 [18 0] [0 4]] (REQUEST)
D 0.003260716 _16_ MAC  COL 0 AODV 106 [0 ffffffff 9 800] ------- [9:255 -1:255 29 0] [0x2 2 1 [18 0] [0 4]] (REQUEST)
D 0.003260742 _0_ MAC  COL 0 AODV 106 [0 ffffffff 9 800] ------- [9:255 -1:255 29 0] [0x2 2 1 [18 0] [0 4]] (REQUEST)
D 0.003260775 _7_ MAC  COL 0 AODV 106 [0 ffffffff 9 800] ------- [9:255 -1:255 29 0] [0x2 2 1 [18 0] [0 4]] (REQUEST)
D 0.003261029 _5_ MAC  COL 0 AODV 106 [0 ffffffff 9 800] ------- [9:255 -1:255 29 0] [0x2 2 1 [18 0] [0 4]] (REQUEST)
D 0.003261049 _8_ MAC  COL 0 AODV 106 [0 ffffffff 9 800] ------- [9:255 -1:255 29 0] [0x2 2 1 [18 0] [0 4]] (REQUEST)
r 0.003261073 _2_ MAC  --- 0 AODV 48 [0 ffffffff 9 800] ------- [9:255 -1:255 29 0] [0x2 2 1 [18 0] [0 4]] (REQUEST)
D 0.003261140 _12_ MAC  COL 0 AODV 106 [0 ffffffff 9 800] ------- [9:255 -1:255 29 0] [0x2 2 1 [18 0] [0 4]] (REQUEST)
D 0.003261241 _6_ MAC  COL 0 AODV 106 [0 ffffffff 9 800] ------- [9:255 -1:255 29 0] [0x2 2 1 [18 0] [0 4]] (REQUEST)
D 0.003261496 _19_ MAC  COL 0 AODV 106 [0 ffffffff 9 800] ------- [9:255 -1:255 29 0] [0x2 2 1 [18 0] [0 4]] (REQUEST)
D 0.003261537 _11_ MAC  COL 0 AODV 106 [0 ffffffff 9 800] ------- [9:255 -1:255 29 0] [0x2 2 1 [18 0] [0 4]] (REQUEST)
D 0.003261786 _13_ MAC  COL 0 AODV 106 [0 ffffffff 9 800] ------- [9:255 -1:255 29 0] [0x2 2 1 [18 0] [0 4]] (REQUEST)
D 0.003262141 _20_ MAC  COL 0 AODV 106 [0 ffffffff 9 800] ------- [9:255 -1:255 29 0] [0x2 2 1 [18 0] [0 4]] (REQUEST)
D 0.003262233 _21_ MAC  COL 0 AODV 106 [0 ffffffff 9 800] ------- [9:255 -1:255 29 0] [0x2 2 1 [18 0] [0 4]] (REQUEST)
D 0.003263752 _1_ MAC  COL 0 AODV 106 [0 ffffffff 9 800] ------- [9:255 -1:255 29 0] [0x2 2 1 [18 0] [0 4]] (REQUEST)
r 0.003285345 _14_ RTR  --- 0 AODV 48 [0 ffffffff 9 800] ------- [9:255 -1:255 29 0] [0x2 2 1 [18 0] [0 4]] (REQUEST)
r 0.003285449 _10_ RTR  --- 0 AODV 48 [0 ffffffff 9 800] ------- [9:255 -1:255 29 0] [0x2 2 1 [18 0] [0 4]] (REQUEST)
r 0.003285549 _4_ RTR  --- 0 AODV 48 [0 ffffffff 9 800] ------- [9:255 -1:255 29 0] [0x2 2 1 [18 0] [0 4]] (REQUEST)
r 0.003285644 _3_ RTR  --- 0 AODV 48 [0 ffffffff 9 800] ------- [9:255 -1:255 29 0] [0x2 2 1 [18 0] [0 4]] (REQUEST)
r 0.003286073 _2_ RTR  --- 0 AODV 48 [0 ffffffff 9 800] ------- [9:255 -1:255 29 0] [0x2 2 1 [18 0] [0 4]] (REQUEST)
s 0.003296921 _10_ RTR  --- 0 AODV 48 [0 ffffffff 0 800] ------- [10:255 -1:255 29 0] [0x2 2 1 [18 0] [0 4]] (REQUEST)
s 0.003675024 _10_ MAC  --- 0 AODV 106 [0 ffffffff a 800] ------- [10:255 -1:255 29 0] [0x2 2 1 [18 0] [0 4]] (REQUEST)
s 0.003847700 _5_ RTR  --- 0 AODV 48 [0 ffffffff 0 800] ------- [5:255 -1:255 29 0] [0x2 2 1 [18 0] [0 4]] (REQUEST)
r 0.004523469 _9_ MAC  --- 0 AODV 48 [0 ffffffff a 800] ------- [10:255 -1:255 29 0] [0x2 2 1 [18 0] [0 4]] (REQUEST)
r 0.004523644 _16_ MAC  --- 0 AODV 48 [0 ffffffff a 800] ------- [10:255 -1:255 29 0] [0x2 2 1 [18 0] [0 4]] (REQUEST)
r 0.004523675 _15_ MAC  --- 0 AODV 48 [0 ffffffff a 800] ------- [10:255 -1:255 29 0] [0x2 2 1 [18 0] [0 4]] (REQUEST)
r 0.004523676 _3_ MAC  --- 0 AODV 48 [0 ffffffff a 800] ------- [10:255 -1:255 29 0] [0x2 2 1 [18 0] [0 4]] (REQUEST)
r 0.004523809 _14_ MAC  --- 0 AODV 48 [0 ffffffff a 800] ------- [10:255 -1:255 29 0] [0x2 2 1 [18 0] [0 4]] (REQUEST)
r 0.004523849 _4_ MAC  --- 0 AODV 48 [0 ffffffff a 800] ------- [10:255 -1:255 29 0] [0x2 2 1 [18 0] [0 4]] (REQUEST)
r 0.004524055 _17_ MAC  --- 0 AODV 48 [0 ffffffff a 800] ------- [10:255 -1:255 29 0] [0x2 2 1 [18 0] [0 4]] (REQUEST)
r 0.004524136 _0_ MAC  --- 0 AODV 48 [0 ffffffff a 800] ------- [10:255 -1:255 29 0] [0x2 2 1 [18 0] [0 4]] (REQUEST)
r 0.004524218 _7_ MAC  --- 0 AODV 48 [0 ffffffff a 800] ------- [10:255 -1:255 29 0] [0x2 2 1 [18 0] [0 4]] (REQUEST)
r 0.004524222 _18_ MAC  --- 0 AODV 48 [0 ffffffff a 800] ------- [10:255 -1:255 29 0] [0x2 2 1 [18 0] [0 4]] (REQUEST)
r 0.004524241 _2_ MAC  --- 0 AODV 48 [0 ffffffff a 800] ------- [10:255 -1:255 29 0] [0x2 2 1 [18 0] [0 4]] (REQUEST)
r 0.004524376 _5_ MAC  --- 0 AODV 48 [0 ffffffff a 800] ------- [10:255 -1:255 29 0] [0x2 2 1 [18 0] [0 4]] (REQUEST)
r 0.004524511 _8_ MAC  --- 0 AODV 48 [0 ffffffff a 800] ------- [10:255 -1:255 29 0] [0x2 2 1 [18 0] [0 4]] (REQUEST)
r 0.004524585 _12_ MAC  --- 0 AODV 48 [0 ffffffff a 800] ------- [10:255 -1:255 29 0] [0x2 2 1 [18 0] [0 4]] (REQUEST)
r 0.004524663 _6_ MAC  --- 0 AODV 48 [0 ffffffff a 800] ------- [10:255 -1:255 29 0] [0x2 2 1 [18 0] [0 4]] (REQUEST)
r 0.004524898 _19_ MAC  --- 0 AODV 48 [0 ffffffff a 800] ------- [10:255 -1:255 29 0] [0x2 2 1 [18 0] [0 4]] (REQUEST)
r 0.004524915 _22_ MAC  --- 0 AODV 48 [0 ffffffff a 800] ------- [10:255 -1:255 29 0] [0x2 2 1 [18 0] [0 4]] (REQUEST)
r 0.004525001 _11_ MAC  --- 0 AODV 48 [0 ffffffff a 800] ------- [10:255 -1:255 29 0] [0x2 2 1 [18 0] [0 4]] (REQUEST)
r 0.004525241 _13_ MAC  --- 0 AODV 48 [0 ffffffff a 800] ------- [10:255 -1:255 29 0] [0x2 2 1 [18 0] [0 4]] (REQUEST)
r 0.004525566 _20_ MAC  --- 0 AODV 48 [0 ffffffff a 800] ------- [10:255 -1:255 29 0] [0x2 2 1 [18 0] [0 4]] (REQUEST)
r 0.004525600 _21_ MAC  --- 0 AODV 48 [0 ffffffff a 800] ------- [10:255 -1:255 29 0] [0x2 2 1 [18 0] [0 4]] (REQUEST)
r 0.004526959 _1_ MAC  --- 0 AODV 48 [0 ffffffff a 800] ------- [10:255 -1:255 29 0] [0x2 2 1 [18 0] [0 4]] (REQUEST)
r 0.004548469 _9_ RTR  --- 0 AODV 48 [0 ffffffff a 800] ------- [10:255 -1:255 29 0] [0x2 2 1 [18 0] [0 4]] (REQUEST)
r 0.004548644 _16_ RTR  --- 0 AODV 48 [0 ffffffff a 800] ------- [10:255 -1:255 29 0] [0x2 2 1 [18 0] [0 4]] (REQUEST)
r 0.004548675 _15_ RTR  --- 0 AODV 48 [0 ffffffff a 800] ------- [10:255 -1:255 29 0] [0x2 2 1 [18 0] [0 4]] (REQUEST)
r 0.004548676 _3_ RTR  --- 0 AODV 48 [0 ffffffff a 800] ------- [10:255 -1:255 29 0] [0x2 2 1 [18 0] [0 4]] (REQUEST)
r 0.004548809 _14_ RTR  --- 0 AODV 48 [0 ffffffff a 800] ------- [10:255 -1:255 29 0] [0x2 2 1 [18 0] [0 4]] (REQUEST)
r 0.004548849 _4_ RTR  --- 0 AODV 48 [0 ffffffff a 800] ------- [10:255 -1:255 29 0] [0x2 2 1 [18 0] [0 4]] (REQUEST)
r 0.004549055 _17_ RTR  --- 0 AODV 48 [0 ffffffff a 800] ------- [10:255 -1:255 29 0] [0x2 2 1 [18 0] [0 4]] (REQUEST)
r 0.004549136 _0_ RTR  --- 0 AODV 48 [0 ffffffff a 800] ------- [10:255 -1:255 29 0] [0x2 2 1 [18 0] [0 4]] (REQUEST)
r 0.004549218 _7_ RTR  --- 0 AODV 48 [0 ffffffff a 800] ------- [10:255 -1:255 29 0] [0x2 2 1 [18 0] [0 4]] (REQUEST)
r 0.004549222 _18_ RTR  --- 0 AODV 48 [0 ffffffff a 800] ------- [10:255 -1:255 29 0] [0x2 2 1 [18 0] [0 4]] (REQUEST)
r 0.004549241 _2_ RTR  --- 0 AODV 48 [0 ffffffff a 800] ------- [10:255 -1:255 29 0] [0x2 2 1 [18 0] [0 4]] (REQUEST)
r 0.004549376 _5_ RTR  --- 0 AODV 48 [0 ffffffff a 800] ------- [10:255 -1:255 29 0] [0x2 2 1 [18 0] [0 4]] (REQUEST)
r 0.004549511 _8_ RTR  --- 0 AODV 48 [0 ffffffff a 800] ------- [10:255 -1:255 29 0] [0x2 2 1 [18 0] [0 4]] (REQUEST)
r 0.004549585 _12_ RTR  --- 0 AODV 48 [0 ffffffff a 800] ------- [10:255 -1:255 29 0] [0x2 2 1 [18 0] [0 4]] (REQUEST)
r 0.004549663 _6_ RTR  --- 0 AODV 48 [0 ffffffff a 800] ------- [10:255 -1:255 29 0] [0x2 2 1 [18 0] [0 4]] (REQUEST)
r 0.004549898 _19_ RTR  --- 0 AODV 48 [0 ffffffff a 800] ------- [10:255 -1:255 29 0] [0x2 2 1 [18 0] [0 4]] (REQUEST)
r 0.004549915 _22_ RTR  --- 0 AODV 48 [0 ffffffff a 800] ------- [10:255 -1:255 29 0] [0x2 2 1 [18 0] [0 4]] (REQUEST)
r 0.004550001 _11_ RTR  --- 0 AODV 48 [0 ffffffff a 800] ------- [10:255 -1:255 29 0] [0x2 2 1 [18 0] [0 4]] (REQUEST)
r 0.004550241 _13_ RTR  --- 0 AODV 48 [0 ffffffff a 800] ------- [10:255 -1:255 29 0] [0x2 2 1 [18 0] [0 4]] (REQUEST)
r 0.004550566 _20_ RTR  --- 0 AODV 48 [0 ffffffff a 800] ------- [10:255 -1:255 29 0] [0x2 2 1 [18 0] [0 4]] (REQUEST)
r 0.004550600 _21_ RTR  --- 0 AODV 48 [0 ffffffff a 800] ------- [10:255 -1:255 29 0] [0x2 2 1 [18 0] [0 4]] (REQUEST)
r 0.004551959 _1_ RTR  --- 0 AODV 48 [0 ffffffff a 800] ------- [10:255 -1:255 29 0] [0x2 2 1 [18 0] [0 4]] (REQUEST)
s 0.004674511 _8_ MAC  --- 0 AODV 106 [0 ffffffff 8 800] ------- [8:255 -1:255 29 0] [0x2 2 1 [18 0] [0 4]] (REQUEST)
s 0.005224456 _20_ RTR  --- 0 AODV 48 [0 ffffffff 0 800] ------- [20:255 -1:255 29 0] [0x2 2 1 [18 0] [0 4]] (REQUEST)
r 0.005522871 _7_ MAC  --- 0 AODV 48 [0 ffffffff 8 800] ------- [8:255 -1:255 29 0] [0x2 2 1 [18 0] [0 4]] (REQUEST)
r 0.005522978 _6_ MAC  --- 0 AODV 48 [0 ffffffff 8 800] ------- [8:255 -1:255 29 0] [0x2 2 1 [18 0] [0 4]] (REQUEST)
r 0.005523008 _11_ MAC  --- 0 AODV 48 [0 ffffffff 8 800] ------- [8:255 -1:255 29 0] [0x2 2 1 [18 0] [0 4]] (REQUEST)
r 0.005523038 _12_ MAC  --- 0 AODV 48 [0 ffffffff 8 800] ------- [8:255 -1:255 29 0] [0x2 2 1 [18 0] [0 4]] (REQUEST)
r 0.005523216 _14_ MAC  --- 0 AODV 48 [0 ffffffff 8 800] ------- [8:255 -1:255 29 0] [0x2 2 1 [18 0] [0 4]] (REQUEST)
r 0.005523266 _5_ MAC  --- 0 AODV 48 [0 ffffffff 8 800] ------- [8:255 -1:255 29 0] [0x2 2 1 [18 0] [0 4]] (REQUEST)
r 0.005523297 _0_ MAC  --- 0 AODV 48 [0 ffffffff 8 800] ------- [8:255 -1:255 29 0] [0x2 2 1 [18 0] [0 4]] (REQUEST)
r 0.005523397 _13_ MAC  --- 0 AODV 48 [0 ffffffff 8 800] ------- [8:255 -1:255 29 0] [0x2 2 1 [18 0] [0 4]] (REQUEST)
r 0.005523413 _4_ MAC  --- 0 AODV 48 [0 ffffffff 8 800] ------- [8:255 -1:255 29 0] [0x2 2 1 [18 0] [0 4]] (REQUEST)
r 0.005523521 _19_ MAC  --- 0 AODV 48 [0 ffffffff 8 800] ------- [8:255 -1:255 29 0] [0x2 2 1 [18 0] [0 4]] (REQUEST)
r 0.005523555 _9_ MAC  --- 0 AODV 48 [0 ffffffff 8 800] ------- [8:255 -1:255 29 0] [0x2 2 1 [18 0] [0 4]] (REQUEST)
r 0.005523673 _15_ MAC  --- 0 AODV 48 [0 ffffffff 8 800] ------- [8:255 -1:255 29 0] [0x2 2 1 [18 0] [0 4]] (REQUEST)
r 0.005523778 _2_ MAC  --- 0 AODV 48 [0 ffffffff 8 800] ------- [8:255 -1:255 29 0] [0x2 2 1 [18 0] [0 4]] (REQUEST)
r 0.005523827 _18_ MAC  --- 0 AODV 48 [0 ffffffff 8 800] ------- [8:255 -1:255 29 0] [0x2 2 1 [18 0] [0 4]] (REQUEST)
r 0.005523835 _3_ MAC  --- 0 AODV 48 [0 ffffffff 8 800] ------- [8:255 -1:255 29 0] [0x2 2 1 [18 0] [0 4]] (REQUEST)
r 0.005523884 _22_ MAC  --- 0 AODV 48 [0 ffffffff 8 800] ------- [8:255 -1:255 29 0] [0x2 2 1 [18 0] [0 4]] (REQUEST)
r 0.005523911 _20_ MAC  --- 0 AODV 48 [0 ffffffff 8 800] ------- [8:255 -1:255 29 0] [0x2 2 1 [18 0] [0 4]] (REQUEST)
r 0.005523997 _10_ MAC  --- 0 AODV 48 [0 ffffffff 8 800] ------- [8:255 -1:255 29 0] [0x2 2 1 [18 0] [0 4]] (REQUEST)
r 0.005524003 _17_ MAC  --- 0 AODV 48 [0 ffffffff 8 800] ------- [8:255 -1:255 29 0] [0x2 2 1 [18 0] [0 4]] (REQUEST)
r 0.005524097 _16_ MAC  --- 0 AODV 48 [0 ffffffff 8 800] ------- [8:255 -1:255 29 0] [0x2 2 1 [18 0] [0 4]] (REQUEST)
r 0.005524257 _21_ MAC  --- 0 AODV 48 [0 ffffffff 8 800] ------- [8:255 -1:255 29 0] [0x2 2 1 [18 0] [0 4]] (REQUEST)
r 0.005526147 _1_ MAC  --- 0 AODV 48 [0 ffffffff 8 800] ------- [8:255 -1:255 29 0] [0x2 2 1 [18 0] [0 4]] (REQUEST)
r 0.005547871 _7_ RTR  --- 0 AODV 48 [0 ffffffff 8 800] ------- [8:255 -1:255 29 0] [0x2 2 1 [18 0] [0 4]] (REQUEST)
r 0.005547978 _6_ RTR  --- 0 AODV 48 [0 ffffffff 8 800] ------- [8:255 -1:255 29 0] [0x2 2 1 [18 0] [0 4]] (REQUEST)
r 0.005548008 _11_ RTR  --- 0 AODV 48 [0 ffffffff 8 800] ------- [8:255 -1:255 29 0] [0x2 2 1 [18 0] [0 4]] (REQUEST)
r 0.005548038 _12_ RTR  --- 0 AODV 48 [0 ffffffff 8 800] ------- [8:255 -1:255 29 0] [0x2 2 1 [18 0] [0 4]] (REQUEST)
r 0.005548216 _14_ RTR  --- 0 AODV 48 [0 ffffffff 8 800] ------- [8:255 -1:255 29 0] [0x2 2 1 [18 0] [0 4]] (REQUEST)
r 0.005548266 _5_ RTR  --- 0 AODV 48 [0 ffffffff 8 800] ------- [8:255 -1:255 29 0] [0x2 2 1 [18 0] [0 4]] (REQUEST)
r 0.005548297 _0_ RTR  --- 0 AODV 48 [0 ffffffff 8 800] ------- [8:255 -1:255 29 0] [0x2 2 1 [18 0] [0 4]] (REQUEST)
r 0.005548397 _13_ RTR  --- 0 AODV 48 [0 ffffffff 8 800] ------- [8:255 -1:255 29 0] [0x2 2 1 [18 0] [0 4]] (REQUEST)
r 0.005548413 _4_ RTR  --- 0 AODV 48 [0 ffffffff 8 800] ------- [8:255 -1:255 29 0] [0x2 2 1 [18 0] [0 4]] (REQUEST)
r 0.005548521 _19_ RTR  --- 0 AODV 48 [0 ffffffff 8 800] ------- [8:255 -1:255 29 0] [0x2 2 1 [18 0] [0 4]] (REQUEST)
r 0.005548555 _9_ RTR  --- 0 AODV 48 [0 ffffffff 8 800] ------- [8:255 -1:255 29 0] [0x2 2 1 [18 0] [0 4]] (REQUEST)
r 0.005548673 _15_ RTR  --- 0 AODV 48 [0 ffffffff 8 800] ------- [8:255 -1:255 29 0] [0x2 2 1 [18 0] [0 4]] (REQUEST)
r 0.005548778 _2_ RTR  --- 0 AODV 48 [0 ffffffff 8 800] ------- [8:255 -1:255 29 0] [0x2 2 1 [18 0] [0 4]] (REQUEST)
r 0.005548827 _18_ RTR  --- 0 AODV 48 [0 ffffffff 8 800] ------- [8:255 -1:255 29 0] [0x2 2 1 [18 0] [0 4]] (REQUEST)
r 0.005548835 _3_ RTR  --- 0 AODV 48 [0 ffffffff 8 800] ------- [8:255 -1:255 29 0] [0x2 2 1 [18 0] [0 4]] (REQUEST)
r 0.005548884 _22_ RTR  --- 0 AODV 48 [0 ffffffff 8 800] ------- [8:255 -1:255 29 0] [0x2 2 1 [18 0] [0 4]] (REQUEST)
r 0.005548911 _20_ RTR  --- 0 AODV 48 [0 ffffffff 8 800] ------- [8:255 -1:255 29 0] [0x2 2 1 [18 0] [0 4]] (REQUEST)
r 0.005548997 _10_ RTR  --- 0 AODV 48 [0 ffffffff 8 800] ------- [8:255 -1:255 29 0] [0x2 2 1 [18 0] [0 4]] (REQUEST)
r 0.005549003 _17_ RTR  --- 0 AODV 48 [0 ffffffff 8 800] ------- [8:255 -1:255 29 0] [0x2 2 1 [18 0] [0 4]] (REQUEST)
r 0.005549097 _16_ RTR  --- 0 AODV 48 [0 ffffffff 8 800] ------- [8:255 -1:255 29 0] [0x2 2 1 [18 0] [0 4]] (REQUEST)
r 0.005549257 _21_ RTR  --- 0 AODV 48 [0 ffffffff 8 800] ------- [8:255 -1:255 29 0] [0x2 2 1 [18 0] [0 4]] (REQUEST)
r 0.005551147 _1_ RTR  --- 0 AODV 48 [0 ffffffff 8 800] ------- [8:255 -1:255 29 0] [0x2 2 1 [18 0] [0 4]] (REQUEST)
s 0.005653673 _15_ MAC  --- 0 AODV 106 [0 ffffffff f 800] ------- [15:255 -1:255 29 0] [0x2 2 1 [18 0] [0 4]] (REQUEST)
s 0.005734860 _11_ RTR  --- 0 AODV 48 [0 ffffffff 0 800] ------- [11:255 -1:255 29 0] [0x2 2 1 [18 0] [0 4]] (REQUEST)
s 0.005977340 _4_ RTR  --- 0 AODV 48 [0 ffffffff 0 800] ------- [4:255 -1:255 29 0] [0x2 2 1 [18 0] [0 4]] (REQUEST)
s 0.006156488 _2_ RTR  --- 0 AODV 48 [0 ffffffff 0 800] ------- [2:255 -1:255 29 0] [0x2 2 1 [18 0] [0 4]] (REQUEST)
r 0.006502100 _16_ MAC  --- 0 AODV 48 [0 ffffffff f 800] ------- [15:255 -1:255 29 0] [0x2 2 1 [18 0] [0 4]] (REQUEST)
r 0.006502118 _9_ MAC  --- 0 AODV 48 [0 ffffffff f 800] ------- [15:255 -1:255 29 0] [0x2 2 1 [18 0] [0 4]] (REQUEST)
r 0.006502161 _17_ MAC  --- 0 AODV 48 [0 ffffffff f 800] ------- [15:255 -1:255 29 0] [0x2 2 1 [18 0] [0 4]] (REQUEST)
r 0.006502200 _0_ MAC  --- 0 AODV 48 [0 ffffffff f 800] ------- [15:255 -1:255 29 0] [0x2 2 1 [18 0] [0 4]] (REQUEST)
r 0.006502236 _14_ MAC  --- 0 AODV 48 [0 ffffffff f 800] ------- [15:255 -1:255 29 0] [0x2 2 1 [18 0] [0 4]] (REQUEST)
r 0.006502237 _18_ MAC  --- 0 AODV 48 [0 ffffffff f 800] ------- [15:255 -1:255 29 0] [0x2 2 1 [18 0] [0 4]] (REQUEST)
r 0.006502323 _10_ MAC  --- 0 AODV 48 [0 ffffffff f 800] ------- [15:255 -1:255 29 0] [0x2 2 1 [18 0] [0 4]] (REQUEST)
r 0.006502637 _4_ MAC  --- 0 AODV 48 [0 ffffffff f 800] ------- [15:255 -1:255 29 0] [0x2 2 1 [18 0] [0 4]] (REQUEST)
r 0.006502679 _7_ MAC  --- 0 AODV 48 [0 ffffffff f 800] ------- [15:255 -1:255 29 0] [0x2 2 1 [18 0] [0 4]] (REQUEST)
r 0.006502711 _12_ MAC  --- 0 AODV 48 [0 ffffffff f 800] ------- [15:255 -1:255 29 0] [0x2 2 1 [18 0] [0 4]] (REQUEST)
r 0.006502749 _3_ MAC  --- 0 AODV 48 [0 ffffffff f 800] ------- [15:255 -1:255 29 0] [0x2 2 1 [18 0] [0 4]] (REQUEST)
r 0.006502834 _8_ MAC  --- 0 AODV 48 [0 ffffffff f 800] ------- [15:255 -1:255 29 0] [0x2 2 1 [18 0] [0 4]] (REQUEST)
r 0.006502913 _22_ MAC  --- 0 AODV 48 [0 ffffffff f 800] ------- [15:255 -1:255 29 0] [0x2 2 1 [18 0] [0 4]] (REQUEST)
r 0.006502933 _19_ MAC  --- 0 AODV 48 [0 ffffffff f 800] ------- [15:255 -1:255 29 0] [0x2 2 1 [18 0] [0 4]] (REQUEST)
r 0.006503055 _5_ MAC  --- 0 AODV 48 [0 ffffffff f 800] ------- [15:255 -1:255 29 0] [0x2 2 1 [18 0] [0 4]] (REQUEST)
r 0.006503155 _6_ MAC  --- 0 AODV 48 [0 ffffffff f 800] ------- [15:255 -1:255 29 0] [0x2 2 1 [18 0] [0 4]] (REQUEST)
r 0.006503179 _2_ MAC  --- 0 AODV 48 [0 ffffffff f 800] ------- [15:255 -1:255 29 0] [0x2 2 1 [18 0] [0 4]] (REQUEST)
r 0.006503263 _11_ MAC  --- 0 AODV 48 [0 ffffffff f 800] ------- [15:255 -1:255 29 0] [0x2 2 1 [18 0] [0 4]] (REQUEST)
r 0.006503377 _13_ MAC  --- 0 AODV 48 [0 ffffffff f 800] ------- [15:255 -1:255 29 0] [0x2 2 1 [18 0] [0 4]] (REQUEST)
r 0.006503606 _21_ MAC  --- 0 AODV 48 [0 ffffffff f 800] ------- [15:255 -1:255 29 0] [0x2 2 1 [18 0] [0 4]] (REQUEST)